MODEL 1
REMARK VINA RESULT:    -7.348      0.000      0.000
REMARK INTER + INTRA:         -10.634
REMARK INTER:                 -10.355
REMARK INTRA:                  -0.278
REMARK UNBOUND:                -0.278
REMARK  Name = PFOA_perfluorooctanoic_acid_CID1036_multiconf
REMARK  7 active torsions:
REMARK  status: ('A' for Active; 'I' for Inactive)
REMARK    1  A    between atoms: C_1  and  C_4
REMARK    2  A    between atoms: C_4  and  C_5
REMARK    3  A    between atoms: C_5  and  C_6
REMARK    4  A    between atoms: C_6  and  C_7
REMARK    5  A    between atoms: C_7  and  C_8
REMARK    6  A    between atoms: C_8  and  C_9
REMARK    7  A    between atoms: C_9  and  C_10
REMARK                            x       y       z     vdW  Elec       q    Type
REMARK                         _______ _______ _______ _____ _____    ______ ____
ROOT
ATOM      1  C   UNL     1      24.248   0.311  53.149  0.00  0.00    +0.384 C 
ATOM      2  F   UNL     1      24.273   0.581  51.806  0.00  0.00    -0.192 F 
ATOM      3  F   UNL     1      24.211   1.545  53.747  0.00  0.00    -0.192 F 
ENDROOT
BRANCH   1   4
ATOM      4  C   UNL     1      25.563  -0.360  53.531  0.00  0.00    +0.384 C 
ATOM      5  F   UNL     1      25.365  -1.052  54.692  0.00  0.00    -0.192 F 
ATOM      6  F   UNL     1      25.880  -1.306  52.608  0.00  0.00    -0.192 F 
BRANCH   4   7
ATOM      7  C   UNL     1      26.719   0.604  53.712  0.00  0.00    +0.389 C 
ATOM      8  F   UNL     1      26.323   1.640  54.509  0.00  0.00    -0.192 F 
ATOM      9  F   UNL     1      27.025   1.174  52.513  0.00  0.00    -0.192 F 
BRANCH   7  10
ATOM     10  C   UNL     1      27.950  -0.049  54.318  0.00  0.00    +0.414 C 
ATOM     11  F   UNL     1      28.097  -1.313  53.817  0.00  0.00    -0.186 F 
ATOM     12  F   UNL     1      27.742  -0.229  55.662  0.00  0.00    -0.186 F 
BRANCH  10  13
ATOM     13  C   UNL     1      29.186   0.798  54.068  0.00  0.00    +0.430 C 
ATOM     14  O   UNL     1      29.345   1.965  54.395  0.00  0.00    -0.239 OA
ATOM     15  O   UNL     1      30.185   0.147  53.434  0.00  0.00    -0.239 OA
ENDBRANCH  10  13
ENDBRANCH   7  10
ENDBRANCH   4   7
ENDBRANCH   1   4
BRANCH   1  16
ATOM     16  C   UNL     1      22.943  -0.410  53.462  0.00  0.00    +0.387 C 
ATOM     17  F   UNL     1      22.803  -0.553  54.806  0.00  0.00    -0.192 F 
ATOM     18  F   UNL     1      23.047  -1.687  52.982  0.00  0.00    -0.192 F 
BRANCH  16  19
ATOM     19  C   UNL     1      21.721   0.247  52.866  0.00  0.00    +0.409 C 
ATOM     20  F   UNL     1      21.865   1.602  52.884  0.00  0.00    -0.189 F 
ATOM     21  F   UNL     1      21.590  -0.092  51.554  0.00  0.00    -0.189 F 
BRANCH  19  22
ATOM     22  C   UNL     1      20.482  -0.153  53.645  0.00  0.00    +0.460 C 
ATOM     23  F   UNL     1      19.356   0.101  52.929  0.00  0.00    -0.165 F 
ATOM     24  F   UNL     1      20.367   0.532  54.806  0.00  0.00    -0.165 F 
ATOM     25  F   UNL     1      20.461  -1.469  53.949  0.00  0.00    -0.165 F 
ENDBRANCH  19  22
ENDBRANCH  16  19
ENDBRANCH   1  16
TORSDOF 7
ENDMDL
MODEL 2
REMARK VINA RESULT:    -7.178      3.135      6.476
REMARK INTER + INTRA:         -10.394
REMARK INTER:                 -10.171
REMARK INTRA:                  -0.223
REMARK UNBOUND:                -0.278
REMARK  Name = PFOA_perfluorooctanoic_acid_CID1036_multiconf
REMARK  7 active torsions:
REMARK  status: ('A' for Active; 'I' for Inactive)
REMARK    1  A    between atoms: C_1  and  C_4
REMARK    2  A    between atoms: C_4  and  C_5
REMARK    3  A    between atoms: C_5  and  C_6
REMARK    4  A    between atoms: C_6  and  C_7
REMARK    5  A    between atoms: C_7  and  C_8
REMARK    6  A    between atoms: C_8  and  C_9
REMARK    7  A    between atoms: C_9  and  C_10
REMARK                            x       y       z     vdW  Elec       q    Type
REMARK                         _______ _______ _______ _____ _____    ______ ____
ROOT
ATOM      1  C   UNL     1      24.501   0.364  53.096  0.00  0.00    +0.384 C 
ATOM      2  F   UNL     1      24.507   1.571  53.745  0.00  0.00    -0.192 F 
ATOM      3  F   UNL     1      24.443   0.689  51.765  0.00  0.00    -0.192 F 
ENDROOT
BRANCH   1   4
ATOM      4  C   UNL     1      23.215  -0.371  53.459  0.00  0.00    +0.384 C 
ATOM      5  F   UNL     1      23.309  -1.650  52.985  0.00  0.00    -0.192 F 
ATOM      6  F   UNL     1      23.126  -0.502  54.809  0.00  0.00    -0.192 F 
BRANCH   4   7
ATOM      7  C   UNL     1      21.958   0.276  52.912  0.00  0.00    +0.389 C 
ATOM      8  F   UNL     1      21.821  -0.046  51.592  0.00  0.00    -0.192 F 
ATOM      9  F   UNL     1      22.100   1.631  52.935  0.00  0.00    -0.192 F 
BRANCH   7  10
ATOM     10  C   UNL     1      20.701  -0.138  53.659  0.00  0.00    +0.414 C 
ATOM     11  F   UNL     1      20.633   0.524  54.853  0.00  0.00    -0.186 F 
ATOM     12  F   UNL     1      20.803  -1.463  54.000  0.00  0.00    -0.186 F 
BRANCH  10  13
ATOM     13  C   UNL     1      19.465   0.111  52.812  0.00  0.00    +0.430 C 
ATOM     14  O   UNL     1      19.190   1.142  52.213  0.00  0.00    -0.239 OA
ATOM     15  O   UNL     1      18.627  -0.945  52.729  0.00  0.00    -0.239 OA
ENDBRANCH  10  13
ENDBRANCH   7  10
ENDBRANCH   4   7
ENDBRANCH   1   4
BRANCH   1  16
ATOM     16  C   UNL     1      25.834  -0.324  53.364  0.00  0.00    +0.387 C 
ATOM     17  F   UNL     1      25.987  -1.381  52.524  0.00  0.00    -0.192 F 
ATOM     18  F   UNL     1      25.776  -0.873  54.615  0.00  0.00    -0.192 F 
BRANCH  16  19
ATOM     19  C   UNL     1      27.026   0.599  53.280  0.00  0.00    +0.409 C 
ATOM     20  F   UNL     1      27.174   1.057  52.005  0.00  0.00    -0.189 F 
ATOM     21  F   UNL     1      26.826   1.706  54.048  0.00  0.00    -0.189 F 
BRANCH  19  22
ATOM     22  C   UNL     1      28.282  -0.131  53.717  0.00  0.00    +0.460 C 
ATOM     23  F   UNL     1      29.395   0.518  53.289  0.00  0.00    -0.165 F 
ATOM     24  F   UNL     1      28.344  -1.384  53.212  0.00  0.00    -0.165 F 
ATOM     25  F   UNL     1      28.384  -0.232  55.061  0.00  0.00    -0.165 F 
ENDBRANCH  19  22
ENDBRANCH  16  19
ENDBRANCH   1  16
TORSDOF 7
ENDMDL
MODEL 3
REMARK VINA RESULT:    -7.147      3.104      6.430
REMARK INTER + INTRA:         -10.350
REMARK INTER:                 -10.236
REMARK INTRA:                  -0.114
REMARK UNBOUND:                -0.278
REMARK  Name = PFOA_perfluorooctanoic_acid_CID1036_multiconf
REMARK  7 active torsions:
REMARK  status: ('A' for Active; 'I' for Inactive)
REMARK    1  A    between atoms: C_1  and  C_4
REMARK    2  A    between atoms: C_4  and  C_5
REMARK    3  A    between atoms: C_5  and  C_6
REMARK    4  A    between atoms: C_6  and  C_7
REMARK    5  A    between atoms: C_7  and  C_8
REMARK    6  A    between atoms: C_8  and  C_9
REMARK    7  A    between atoms: C_9  and  C_10
REMARK                            x       y       z     vdW  Elec       q    Type
REMARK                         _______ _______ _______ _____ _____    ______ ____
ROOT
ATOM      1  C   UNL     1      25.069  -0.229  53.734  0.00  0.00    +0.384 C 
ATOM      2  F   UNL     1      25.261  -1.333  52.945  0.00  0.00    -0.192 F 
ATOM      3  F   UNL     1      24.364  -0.696  54.814  0.00  0.00    -0.192 F 
ENDROOT
BRANCH   1   4
ATOM      4  C   UNL     1      24.181   0.754  52.980  0.00  0.00    +0.384 C 
ATOM      5  F   UNL     1      24.285   1.973  53.588  0.00  0.00    -0.192 F 
ATOM      6  F   UNL     1      24.670   0.945  51.726  0.00  0.00    -0.192 F 
BRANCH   4   7
ATOM      7  C   UNL     1      22.722   0.347  52.917  0.00  0.00    +0.389 C 
ATOM      8  F   UNL     1      22.151   0.520  54.144  0.00  0.00    -0.192 F 
ATOM      9  F   UNL     1      22.636  -0.990  52.669  0.00  0.00    -0.192 F 
BRANCH   7  10
ATOM     10  C   UNL     1      21.930   1.129  51.883  0.00  0.00    +0.414 C 
ATOM     11  F   UNL     1      22.181   0.634  50.634  0.00  0.00    -0.186 F 
ATOM     12  F   UNL     1      22.396   2.419  51.847  0.00  0.00    -0.186 F 
BRANCH  10  13
ATOM     13  C   UNL     1      20.445   1.097  52.207  0.00  0.00    +0.430 C 
ATOM     14  O   UNL     1      19.707   0.126  52.135  0.00  0.00    -0.239 OA
ATOM     15  O   UNL     1      19.944   2.278  52.628  0.00  0.00    -0.239 OA
ENDBRANCH  10  13
ENDBRANCH   7  10
ENDBRANCH   4   7
ENDBRANCH   1   4
BRANCH   1  16
ATOM     16  C   UNL     1      26.432   0.246  54.222  0.00  0.00    +0.387 C 
ATOM     17  F   UNL     1      26.654  -0.203  55.485  0.00  0.00    -0.192 F 
ATOM     18  F   UNL     1      26.383   1.608  54.336  0.00  0.00    -0.192 F 
BRANCH  16  19
ATOM     19  C   UNL     1      27.575  -0.137  53.313  0.00  0.00    +0.409 C 
ATOM     20  F   UNL     1      27.736  -1.490  53.309  0.00  0.00    -0.189 F 
ATOM     21  F   UNL     1      27.293   0.204  52.024  0.00  0.00    -0.189 F 
BRANCH  19  22
ATOM     22  C   UNL     1      28.855   0.537  53.772  0.00  0.00    +0.460 C 
ATOM     23  F   UNL     1      29.945  -0.121  53.301  0.00  0.00    -0.165 F 
ATOM     24  F   UNL     1      28.964   0.555  55.121  0.00  0.00    -0.165 F 
ATOM     25  F   UNL     1      28.954   1.814  53.342  0.00  0.00    -0.165 F 
ENDBRANCH  19  22
ENDBRANCH  16  19
ENDBRANCH   1  16
TORSDOF 7
ENDMDL
MODEL 4
REMARK VINA RESULT:    -7.024      1.069      2.853
REMARK INTER + INTRA:         -10.177
REMARK INTER:                  -9.959
REMARK INTRA:                  -0.217
REMARK UNBOUND:                -0.278
REMARK  Name = PFOA_perfluorooctanoic_acid_CID1036_multiconf
REMARK  7 active torsions:
REMARK  status: ('A' for Active; 'I' for Inactive)
REMARK    1  A    between atoms: C_1  and  C_4
REMARK    2  A    between atoms: C_4  and  C_5
REMARK    3  A    between atoms: C_5  and  C_6
REMARK    4  A    between atoms: C_6  and  C_7
REMARK    5  A    between atoms: C_7  and  C_8
REMARK    6  A    between atoms: C_8  and  C_9
REMARK    7  A    between atoms: C_9  and  C_10
REMARK                            x       y       z     vdW  Elec       q    Type
REMARK                         _______ _______ _______ _____ _____    ______ ____
ROOT
ATOM      1  C   UNL     1      23.042  -0.148  53.306  0.00  0.00    +0.384 C 
ATOM      2  F   UNL     1      22.842  -0.180  54.662  0.00  0.00    -0.192 F 
ATOM      3  F   UNL     1      23.190  -1.464  52.949  0.00  0.00    -0.192 F 
ENDROOT
BRANCH   1   4
ATOM      4  C   UNL     1      24.360   0.568  53.030  0.00  0.00    +0.384 C 
ATOM      5  F   UNL     1      24.424   0.838  51.692  0.00  0.00    -0.192 F 
ATOM      6  F   UNL     1      24.356   1.786  53.635  0.00  0.00    -0.192 F 
BRANCH   4   7
ATOM      7  C   UNL     1      25.588  -0.218  53.444  0.00  0.00    +0.389 C 
ATOM      8  F   UNL     1      25.733  -1.298  52.621  0.00  0.00    -0.192 F 
ATOM      9  F   UNL     1      25.393  -0.741  54.686  0.00  0.00    -0.192 F 
BRANCH   7  10
ATOM     10  C   UNL     1      26.863   0.608  53.410  0.00  0.00    +0.414 C 
ATOM     11  F   UNL     1      26.684   1.764  54.118  0.00  0.00    -0.186 F 
ATOM     12  F   UNL     1      27.093   1.020  52.122  0.00  0.00    -0.186 F 
BRANCH  10  13
ATOM     13  C   UNL     1      28.039  -0.195  53.941  0.00  0.00    +0.430 C 
ATOM     14  O   UNL     1      28.702  -1.011  53.317  0.00  0.00    -0.239 OA
ATOM     15  O   UNL     1      28.352   0.066  55.228  0.00  0.00    -0.239 OA
ENDBRANCH  10  13
ENDBRANCH   7  10
ENDBRANCH   4   7
ENDBRANCH   1   4
BRANCH   1  16
ATOM     16  C   UNL     1      21.773   0.385  52.653  0.00  0.00    +0.387 C 
ATOM     17  F   UNL     1      21.750   0.045  51.338  0.00  0.00    -0.192 F 
ATOM     18  F   UNL     1      21.840   1.751  52.662  0.00  0.00    -0.192 F 
BRANCH  16  19
ATOM     19  C   UNL     1      20.500  -0.055  53.338  0.00  0.00    +0.409 C 
ATOM     20  F   UNL     1      20.554  -1.389  53.610  0.00  0.00    -0.189 F 
ATOM     21  F   UNL     1      20.372   0.562  54.546  0.00  0.00    -0.189 F 
BRANCH  19  22
ATOM     22  C   UNL     1      19.303   0.246  52.457  0.00  0.00    +0.460 C 
ATOM     23  F   UNL     1      19.120   1.586  52.328  0.00  0.00    -0.165 F 
ATOM     24  F   UNL     1      18.155  -0.255  52.969  0.00  0.00    -0.165 F 
ATOM     25  F   UNL     1      19.438  -0.250  51.208  0.00  0.00    -0.165 F 
ENDBRANCH  19  22
ENDBRANCH  16  19
ENDBRANCH   1  16
TORSDOF 7
ENDMDL
MODEL 5
REMARK VINA RESULT:    -6.985      2.945      6.291
REMARK INTER + INTRA:         -10.122
REMARK INTER:                 -10.166
REMARK INTRA:                   0.044
REMARK UNBOUND:                -0.278
REMARK  Name = PFOA_perfluorooctanoic_acid_CID1036_multiconf
REMARK  7 active torsions:
REMARK  status: ('A' for Active; 'I' for Inactive)
REMARK    1  A    between atoms: C_1  and  C_4
REMARK    2  A    between atoms: C_4  and  C_5
REMARK    3  A    between atoms: C_5  and  C_6
REMARK    4  A    between atoms: C_6  and  C_7
REMARK    5  A    between atoms: C_7  and  C_8
REMARK    6  A    between atoms: C_8  and  C_9
REMARK    7  A    between atoms: C_9  and  C_10
REMARK                            x       y       z     vdW  Elec       q    Type
REMARK                         _______ _______ _______ _____ _____    ______ ____
ROOT
ATOM      1  C   UNL     1      25.493   1.268  53.172  0.00  0.00    +0.384 C 
ATOM      2  F   UNL     1      25.059   2.452  53.710  0.00  0.00    -0.192 F 
ATOM      3  F   UNL     1      25.867   1.588  51.892  0.00  0.00    -0.192 F 
ENDROOT
BRANCH   1   4
ATOM      4  C   UNL     1      24.308   0.312  53.093  0.00  0.00    +0.384 C 
ATOM      5  F   UNL     1      24.708  -0.805  52.414  0.00  0.00    -0.192 F 
ATOM      6  F   UNL     1      23.991  -0.130  54.339  0.00  0.00    -0.192 F 
BRANCH   4   7
ATOM      7  C   UNL     1      23.084   0.899  52.418  0.00  0.00    +0.389 C 
ATOM      8  F   UNL     1      23.378   1.182  51.115  0.00  0.00    -0.192 F 
ATOM      9  F   UNL     1      22.788   2.101  52.986  0.00  0.00    -0.192 F 
BRANCH   7  10
ATOM     10  C   UNL     1      21.877  -0.023  52.468  0.00  0.00    +0.414 C 
ATOM     11  F   UNL     1      22.267  -1.277  52.848  0.00  0.00    -0.186 F 
ATOM     12  F   UNL     1      21.385  -0.181  51.197  0.00  0.00    -0.186 F 
BRANCH  10  13
ATOM     13  C   UNL     1      20.812   0.536  53.397  0.00  0.00    +0.430 C 
ATOM     14  O   UNL     1      20.737   0.359  54.605  0.00  0.00    -0.239 OA
ATOM     15  O   UNL     1      19.892   1.311  52.784  0.00  0.00    -0.239 OA
ENDBRANCH  10  13
ENDBRANCH   7  10
ENDBRANCH   4   7
ENDBRANCH   1   4
BRANCH   1  16
ATOM     16  C   UNL     1      26.735   0.828  53.938  0.00  0.00    +0.387 C 
ATOM     17  F   UNL     1      26.402   0.503  55.214  0.00  0.00    -0.192 F 
ATOM     18  F   UNL     1      27.559   1.913  54.055  0.00  0.00    -0.192 F 
BRANCH  16  19
ATOM     19  C   UNL     1      27.491  -0.302  53.280  0.00  0.00    +0.409 C 
ATOM     20  F   UNL     1      26.904  -1.494  53.583  0.00  0.00    -0.189 F 
ATOM     21  F   UNL     1      27.425  -0.193  51.924  0.00  0.00    -0.189 F 
BRANCH  19  22
ATOM     22  C   UNL     1      28.935  -0.303  53.744  0.00  0.00    +0.460 C 
ATOM     23  F   UNL     1      29.546  -1.473  53.429  0.00  0.00    -0.165 F 
ATOM     24  F   UNL     1      29.039  -0.159  55.086  0.00  0.00    -0.165 F 
ATOM     25  F   UNL     1      29.665   0.682  53.175  0.00  0.00    -0.165 F 
ENDBRANCH  19  22
ENDBRANCH  16  19
ENDBRANCH   1  16
TORSDOF 7
ENDMDL
MODEL 6
REMARK VINA RESULT:    -6.977      2.852      6.420
REMARK INTER + INTRA:         -10.110
REMARK INTER:                 -10.176
REMARK INTRA:                   0.066
REMARK UNBOUND:                -0.278
REMARK  Name = PFOA_perfluorooctanoic_acid_CID1036_multiconf
REMARK  7 active torsions:
REMARK  status: ('A' for Active; 'I' for Inactive)
REMARK    1  A    between atoms: C_1  and  C_4
REMARK    2  A    between atoms: C_4  and  C_5
REMARK    3  A    between atoms: C_5  and  C_6
REMARK    4  A    between atoms: C_6  and  C_7
REMARK    5  A    between atoms: C_7  and  C_8
REMARK    6  A    between atoms: C_8  and  C_9
REMARK    7  A    between atoms: C_9  and  C_10
REMARK                            x       y       z     vdW  Elec       q    Type
REMARK                         _______ _______ _______ _____ _____    ______ ____
ROOT
ATOM      1  C   UNL     1      25.986   0.083  54.107  0.00  0.00    +0.384 C 
ATOM      2  F   UNL     1      26.193  -0.213  55.429  0.00  0.00    -0.192 F 
ATOM      3  F   UNL     1      25.910   1.452  54.068  0.00  0.00    -0.192 F 
ENDROOT
BRANCH   1   4
ATOM      4  C   UNL     1      24.629  -0.477  53.694  0.00  0.00    +0.384 C 
ATOM      5  F   UNL     1      24.844  -1.564  52.894  0.00  0.00    -0.192 F 
ATOM      6  F   UNL     1      23.983  -0.966  54.786  0.00  0.00    -0.192 F 
BRANCH   4   7
ATOM      7  C   UNL     1      23.747   0.517  52.965  0.00  0.00    +0.389 C 
ATOM      8  F   UNL     1      24.347   0.882  51.794  0.00  0.00    -0.192 F 
ATOM      9  F   UNL     1      23.660   1.664  53.693  0.00  0.00    -0.192 F 
BRANCH   7  10
ATOM     10  C   UNL     1      22.360  -0.027  52.665  0.00  0.00    +0.414 C 
ATOM     11  F   UNL     1      22.377  -1.393  52.715  0.00  0.00    -0.186 F 
ATOM     12  F   UNL     1      22.036   0.271  51.366  0.00  0.00    -0.186 F 
BRANCH  10  13
ATOM     13  C   UNL     1      21.336   0.553  53.627  0.00  0.00    +0.430 C 
ATOM     14  O   UNL     1      21.107   0.166  54.764  0.00  0.00    -0.239 OA
ATOM     15  O   UNL     1      20.650   1.608  53.136  0.00  0.00    -0.239 OA
ENDBRANCH  10  13
ENDBRANCH   7  10
ENDBRANCH   4   7
ENDBRANCH   1   4
BRANCH   1  16
ATOM     16  C   UNL     1      27.221  -0.349  53.327  0.00  0.00    +0.387 C 
ATOM     17  F   UNL     1      27.042  -0.106  52.003  0.00  0.00    -0.192 F 
ATOM     18  F   UNL     1      27.321  -1.710  53.425  0.00  0.00    -0.192 F 
BRANCH  16  19
ATOM     19  C   UNL     1      28.505   0.279  53.815  0.00  0.00    +0.409 C 
ATOM     20  F   UNL     1      28.701   1.478  53.196  0.00  0.00    -0.189 F 
ATOM     21  F   UNL     1      28.422   0.560  55.145  0.00  0.00    -0.189 F 
BRANCH  19  22
ATOM     22  C   UNL     1      29.676  -0.644  53.538  0.00  0.00    +0.460 C 
ATOM     23  F   UNL     1      29.966  -1.400  54.629  0.00  0.00    -0.165 F 
ATOM     24  F   UNL     1      30.802   0.039  53.229  0.00  0.00    -0.165 F 
ATOM     25  F   UNL     1      29.433  -1.503  52.524  0.00  0.00    -0.165 F 
ENDBRANCH  19  22
ENDBRANCH  16  19
ENDBRANCH   1  16
TORSDOF 7
ENDMDL
MODEL 7
REMARK VINA RESULT:    -6.916      1.163      2.486
REMARK INTER + INTRA:         -10.024
REMARK INTER:                 -10.264
REMARK INTRA:                   0.240
REMARK UNBOUND:                -0.278
REMARK  Name = PFOA_perfluorooctanoic_acid_CID1036_multiconf
REMARK  7 active torsions:
REMARK  status: ('A' for Active; 'I' for Inactive)
REMARK    1  A    between atoms: C_1  and  C_4
REMARK    2  A    between atoms: C_4  and  C_5
REMARK    3  A    between atoms: C_5  and  C_6
REMARK    4  A    between atoms: C_6  and  C_7
REMARK    5  A    between atoms: C_7  and  C_8
REMARK    6  A    between atoms: C_8  and  C_9
REMARK    7  A    between atoms: C_9  and  C_10
REMARK                            x       y       z     vdW  Elec       q    Type
REMARK                         _______ _______ _______ _____ _____    ______ ____
ROOT
ATOM      1  C   UNL     1      24.260  -0.183  53.292  0.00  0.00    +0.384 C 
ATOM      2  F   UNL     1      23.929  -0.585  54.560  0.00  0.00    -0.192 F 
ATOM      3  F   UNL     1      24.408  -1.350  52.588  0.00  0.00    -0.192 F 
ENDROOT
BRANCH   1   4
ATOM      4  C   UNL     1      25.617   0.511  53.346  0.00  0.00    +0.384 C 
ATOM      5  F   UNL     1      25.651   1.456  52.360  0.00  0.00    -0.192 F 
ATOM      6  F   UNL     1      25.729   1.210  54.506  0.00  0.00    -0.192 F 
BRANCH   4   7
ATOM      7  C   UNL     1      26.797  -0.427  53.183  0.00  0.00    +0.389 C 
ATOM      8  F   UNL     1      27.105  -0.542  51.858  0.00  0.00    -0.192 F 
ATOM      9  F   UNL     1      26.436  -1.681  53.575  0.00  0.00    -0.192 F 
BRANCH   7  10
ATOM     10  C   UNL     1      28.031   0.031  53.943  0.00  0.00    +0.414 C 
ATOM     11  F   UNL     1      27.800  -0.043  55.289  0.00  0.00    -0.186 F 
ATOM     12  F   UNL     1      28.235   1.365  53.698  0.00  0.00    -0.186 F 
BRANCH  10  13
ATOM     13  C   UNL     1      29.246  -0.788  53.540  0.00  0.00    +0.430 C 
ATOM     14  O   UNL     1      29.274  -1.993  53.335  0.00  0.00    -0.239 OA
ATOM     15  O   UNL     1      30.377  -0.065  53.390  0.00  0.00    -0.239 OA
ENDBRANCH  10  13
ENDBRANCH   7  10
ENDBRANCH   4   7
ENDBRANCH   1   4
BRANCH   1  16
ATOM     16  C   UNL     1      23.075   0.579  52.713  0.00  0.00    +0.387 C 
ATOM     17  F   UNL     1      23.362   0.995  51.452  0.00  0.00    -0.192 F 
ATOM     18  F   UNL     1      22.924   1.729  53.437  0.00  0.00    -0.192 F 
BRANCH  16  19
ATOM     19  C   UNL     1      21.779  -0.196  52.735  0.00  0.00    +0.409 C 
ATOM     20  F   UNL     1      21.231  -0.225  51.488  0.00  0.00    -0.189 F 
ATOM     21  F   UNL     1      22.008  -1.497  53.067  0.00  0.00    -0.189 F 
BRANCH  19  22
ATOM     22  C   UNL     1      20.808   0.439  53.713  0.00  0.00    +0.460 C 
ATOM     23  F   UNL     1      21.304   0.411  54.976  0.00  0.00    -0.165 F 
ATOM     24  F   UNL     1      19.622  -0.210  53.747  0.00  0.00    -0.165 F 
ATOM     25  F   UNL     1      20.552   1.734  53.424  0.00  0.00    -0.165 F 
ENDBRANCH  19  22
ENDBRANCH  16  19
ENDBRANCH   1  16
TORSDOF 7
ENDMDL
MODEL 8
REMARK VINA RESULT:    -6.827      2.802      6.083
REMARK INTER + INTRA:          -9.899
REMARK INTER:                  -9.988
REMARK INTRA:                   0.089
REMARK UNBOUND:                -0.278
REMARK  Name = PFOA_perfluorooctanoic_acid_CID1036_multiconf
REMARK  7 active torsions:
REMARK  status: ('A' for Active; 'I' for Inactive)
REMARK    1  A    between atoms: C_1  and  C_4
REMARK    2  A    between atoms: C_4  and  C_5
REMARK    3  A    between atoms: C_5  and  C_6
REMARK    4  A    between atoms: C_6  and  C_7
REMARK    5  A    between atoms: C_7  and  C_8
REMARK    6  A    between atoms: C_8  and  C_9
REMARK    7  A    between atoms: C_9  and  C_10
REMARK                            x       y       z     vdW  Elec       q    Type
REMARK                         _______ _______ _______ _____ _____    ______ ____
ROOT
ATOM      1  C   UNL     1      25.982   1.011  52.055  0.00  0.00    +0.384 C 
ATOM      2  F   UNL     1      26.365   1.783  50.989  0.00  0.00    -0.192 F 
ATOM      3  F   UNL     1      26.084  -0.279  51.600  0.00  0.00    -0.192 F 
ENDROOT
BRANCH   1   4
ATOM      4  C   UNL     1      24.512   1.292  52.350  0.00  0.00    +0.384 C 
ATOM      5  F   UNL     1      24.437   2.462  53.052  0.00  0.00    -0.192 F 
ATOM      6  F   UNL     1      23.850   1.537  51.188  0.00  0.00    -0.192 F 
BRANCH   4   7
ATOM      7  C   UNL     1      23.817   0.193  53.128  0.00  0.00    +0.389 C 
ATOM      8  F   UNL     1      24.173   0.274  54.443  0.00  0.00    -0.192 F 
ATOM      9  F   UNL     1      24.276  -1.019  52.708  0.00  0.00    -0.192 F 
BRANCH   7  10
ATOM     10  C   UNL     1      22.302   0.253  53.017  0.00  0.00    +0.414 C 
ATOM     11  F   UNL     1      21.902  -0.288  51.827  0.00  0.00    -0.186 F 
ATOM     12  F   UNL     1      21.912   1.566  52.952  0.00  0.00    -0.186 F 
BRANCH  10  13
ATOM     13  C   UNL     1      21.649  -0.450  54.197  0.00  0.00    +0.430 C 
ATOM     14  O   UNL     1      21.080   0.085  55.136  0.00  0.00    -0.239 OA
ATOM     15  O   UNL     1      21.717  -1.798  54.145  0.00  0.00    -0.239 OA
ENDBRANCH  10  13
ENDBRANCH   7  10
ENDBRANCH   4   7
ENDBRANCH   1   4
BRANCH   1  16
ATOM     16  C   UNL     1      27.000   1.206  53.171  0.00  0.00    +0.387 C 
ATOM     17  F   UNL     1      26.427   1.868  54.210  0.00  0.00    -0.192 F 
ATOM     18  F   UNL     1      27.970   2.052  52.708  0.00  0.00    -0.192 F 
BRANCH  16  19
ATOM     19  C   UNL     1      27.643  -0.075  53.645  0.00  0.00    +0.409 C 
ATOM     20  F   UNL     1      26.696  -0.909  54.162  0.00  0.00    -0.189 F 
ATOM     21  F   UNL     1      28.193  -0.748  52.597  0.00  0.00    -0.189 F 
BRANCH  19  22
ATOM     22  C   UNL     1      28.696   0.227  54.695  0.00  0.00    +0.460 C 
ATOM     23  F   UNL     1      28.184   0.101  55.946  0.00  0.00    -0.165 F 
ATOM     24  F   UNL     1      29.169   1.490  54.593  0.00  0.00    -0.165 F 
ATOM     25  F   UNL     1      29.756  -0.609  54.623  0.00  0.00    -0.165 F 
ENDBRANCH  19  22
ENDBRANCH  16  19
ENDBRANCH   1  16
TORSDOF 7
ENDMDL
MODEL 9
REMARK VINA RESULT:    -6.774      3.068      6.322
REMARK INTER + INTRA:          -9.824
REMARK INTER:                 -10.133
REMARK INTRA:                   0.309
REMARK UNBOUND:                -0.278
REMARK  Name = PFOA_perfluorooctanoic_acid_CID1036_multiconf
REMARK  7 active torsions:
REMARK  status: ('A' for Active; 'I' for Inactive)
REMARK    1  A    between atoms: C_1  and  C_4
REMARK    2  A    between atoms: C_4  and  C_5
REMARK    3  A    between atoms: C_5  and  C_6
REMARK    4  A    between atoms: C_6  and  C_7
REMARK    5  A    between atoms: C_7  and  C_8
REMARK    6  A    between atoms: C_8  and  C_9
REMARK    7  A    between atoms: C_9  and  C_10
REMARK                            x       y       z     vdW  Elec       q    Type
REMARK                         _______ _______ _______ _____ _____    ______ ____
ROOT
ATOM      1  C   UNL     1      24.951  -0.086  53.112  0.00  0.00    +0.384 C 
ATOM      2  F   UNL     1      24.906  -1.390  52.691  0.00  0.00    -0.192 F 
ATOM      3  F   UNL     1      25.230  -0.166  54.453  0.00  0.00    -0.192 F 
ENDROOT
BRANCH   1   4
ATOM      4  C   UNL     1      23.561   0.521  52.955  0.00  0.00    +0.384 C 
ATOM      5  F   UNL     1      23.591   1.789  53.462  0.00  0.00    -0.192 F 
ATOM      6  F   UNL     1      23.276   0.677  51.634  0.00  0.00    -0.192 F 
BRANCH   4   7
ATOM      7  C   UNL     1      22.462  -0.268  53.638  0.00  0.00    +0.389 C 
ATOM      8  F   UNL     1      22.865  -0.608  54.898  0.00  0.00    -0.192 F 
ATOM      9  F   UNL     1      22.285  -1.453  52.990  0.00  0.00    -0.192 F 
BRANCH   7  10
ATOM     10  C   UNL     1      21.148   0.492  53.723  0.00  0.00    +0.414 C 
ATOM     11  F   UNL     1      21.322   1.769  53.266  0.00  0.00    -0.186 F 
ATOM     12  F   UNL     1      20.802   0.637  55.042  0.00  0.00    -0.186 F 
BRANCH  10  13
ATOM     13  C   UNL     1      20.057  -0.234  52.952  0.00  0.00    +0.430 C 
ATOM     14  O   UNL     1      19.242  -1.019  53.413  0.00  0.00    -0.239 OA
ATOM     15  O   UNL     1      20.016   0.066  51.636  0.00  0.00    -0.239 OA
ENDBRANCH  10  13
ENDBRANCH   7  10
ENDBRANCH   4   7
ENDBRANCH   1   4
BRANCH   1  16
ATOM     16  C   UNL     1      26.126   0.594  52.419  0.00  0.00    +0.387 C 
ATOM     17  F   UNL     1      25.670   1.475  51.492  0.00  0.00    -0.192 F 
ATOM     18  F   UNL     1      26.794  -0.359  51.700  0.00  0.00    -0.192 F 
BRANCH  16  19
ATOM     19  C   UNL     1      27.089   1.269  53.367  0.00  0.00    +0.409 C 
ATOM     20  F   UNL     1      27.644   2.360  52.768  0.00  0.00    -0.189 F 
ATOM     21  F   UNL     1      26.428   1.744  54.459  0.00  0.00    -0.189 F 
BRANCH  19  22
ATOM     22  C   UNL     1      28.176   0.297  53.785  0.00  0.00    +0.460 C 
ATOM     23  F   UNL     1      28.558   0.519  55.069  0.00  0.00    -0.165 F 
ATOM     24  F   UNL     1      29.287   0.417  53.022  0.00  0.00    -0.165 F 
ATOM     25  F   UNL     1      27.776  -0.992  53.715  0.00  0.00    -0.165 F 
ENDBRANCH  19  22
ENDBRANCH  16  19
ENDBRANCH   1  16
TORSDOF 7
ENDMDL
MODEL 10
REMARK VINA RESULT:    -6.758      2.936      6.263
REMARK INTER + INTRA:          -9.802
REMARK INTER:                  -9.685
REMARK INTRA:                  -0.117
REMARK UNBOUND:                -0.278
REMARK  Name = PFOA_perfluorooctanoic_acid_CID1036_multiconf
REMARK  7 active torsions:
REMARK  status: ('A' for Active; 'I' for Inactive)
REMARK    1  A    between atoms: C_1  and  C_4
REMARK    2  A    between atoms: C_4  and  C_5
REMARK    3  A    between atoms: C_5  and  C_6
REMARK    4  A    between atoms: C_6  and  C_7
REMARK    5  A    between atoms: C_7  and  C_8
REMARK    6  A    between atoms: C_8  and  C_9
REMARK    7  A    between atoms: C_9  and  C_10
REMARK                            x       y       z     vdW  Elec       q    Type
REMARK                         _______ _______ _______ _____ _____    ______ ____
ROOT
ATOM      1  C   UNL     1      26.033   0.485  54.011  0.00  0.00    +0.384 C 
ATOM      2  F   UNL     1      25.627  -0.272  55.079  0.00  0.00    -0.192 F 
ATOM      3  F   UNL     1      26.469   1.660  54.568  0.00  0.00    -0.192 F 
ENDROOT
BRANCH   1   4
ATOM      4  C   UNL     1      24.814   0.795  53.148  0.00  0.00    +0.384 C 
ATOM      5  F   UNL     1      24.848  -0.025  52.056  0.00  0.00    -0.192 F 
ATOM      6  F   UNL     1      23.681   0.447  53.814  0.00  0.00    -0.192 F 
BRANCH   4   7
ATOM      7  C   UNL     1      24.731   2.238  52.691  0.00  0.00    +0.389 C 
ATOM      8  F   UNL     1      25.938   2.620  52.179  0.00  0.00    -0.192 F 
ATOM      9  F   UNL     1      24.531   3.043  53.771  0.00  0.00    -0.192 F 
BRANCH   7  10
ATOM     10  C   UNL     1      23.651   2.470  51.648  0.00  0.00    +0.414 C 
ATOM     11  F   UNL     1      22.670   1.527  51.778  0.00  0.00    -0.186 F 
ATOM     12  F   UNL     1      24.181   2.253  50.402  0.00  0.00    -0.186 F 
BRANCH  10  13
ATOM     13  C   UNL     1      23.089   3.878  51.761  0.00  0.00    +0.430 C 
ATOM     14  O   UNL     1      22.022   4.196  52.265  0.00  0.00    -0.239 OA
ATOM     15  O   UNL     1      23.893   4.838  51.255  0.00  0.00    -0.239 OA
ENDBRANCH  10  13
ENDBRANCH   7  10
ENDBRANCH   4   7
ENDBRANCH   1   4
BRANCH   1  16
ATOM     16  C   UNL     1      27.225  -0.209  53.365  0.00  0.00    +0.387 C 
ATOM     17  F   UNL     1      27.349   0.188  52.072  0.00  0.00    -0.192 F 
ATOM     18  F   UNL     1      26.944  -1.546  53.298  0.00  0.00    -0.192 F 
BRANCH  16  19
ATOM     19  C   UNL     1      28.525  -0.012  54.109  0.00  0.00    +0.409 C 
ATOM     20  F   UNL     1      28.913   1.292  54.032  0.00  0.00    -0.189 F 
ATOM     21  F   UNL     1      28.358  -0.269  55.436  0.00  0.00    -0.189 F 
BRANCH  19  22
ATOM     22  C   UNL     1      29.601  -0.908  53.525  0.00  0.00    +0.460 C 
ATOM     23  F   UNL     1      29.055  -2.008  52.946  0.00  0.00    -0.165 F 
ATOM     24  F   UNL     1      30.462  -1.352  54.469  0.00  0.00    -0.165 F 
ATOM     25  F   UNL     1      30.332  -0.289  52.571  0.00  0.00    -0.165 F 
ENDBRANCH  19  22
ENDBRANCH  16  19
ENDBRANCH   1  16
TORSDOF 7
ENDMDL
