MODEL 1
REMARK VINA RESULT:    -7.609      0.000      0.000
REMARK INTER + INTRA:         -11.079
REMARK INTER:                 -10.723
REMARK INTRA:                  -0.357
REMARK UNBOUND:                -0.357
REMARK  Name = PFOA_perfluorooctanoic_acid_CID1036_multiconf
REMARK  7 active torsions:
REMARK  status: ('A' for Active; 'I' for Inactive)
REMARK    1  A    between atoms: C_1  and  C_4
REMARK    2  A    between atoms: C_4  and  C_5
REMARK    3  A    between atoms: C_5  and  C_6
REMARK    4  A    between atoms: C_6  and  C_7
REMARK    5  A    between atoms: C_7  and  C_8
REMARK    6  A    between atoms: C_8  and  C_9
REMARK    7  A    between atoms: C_9  and  C_10
REMARK                            x       y       z     vdW  Elec       q    Type
REMARK                         _______ _______ _______ _____ _____    ______ ____
ROOT
ATOM      1  C   UNL     1      15.038  16.375 -21.303  0.00  0.00    +0.384 C 
ATOM      2  F   UNL     1      14.669  16.225 -22.615  0.00  0.00    -0.192 F 
ATOM      3  F   UNL     1      15.968  17.383 -21.320  0.00  0.00    -0.192 F 
ENDROOT
BRANCH   1   4
ATOM      4  C   UNL     1      15.736  15.097 -20.850  0.00  0.00    +0.384 C 
ATOM      5  F   UNL     1      15.663  15.034 -19.487  0.00  0.00    -0.192 F 
ATOM      6  F   UNL     1      15.041  14.014 -21.289  0.00  0.00    -0.192 F 
BRANCH   4   7
ATOM      7  C   UNL     1      17.186  14.998 -21.281  0.00  0.00    +0.389 C 
ATOM      8  F   UNL     1      17.933  15.886 -20.561  0.00  0.00    -0.192 F 
ATOM      9  F   UNL     1      17.301  15.402 -22.576  0.00  0.00    -0.192 F 
BRANCH   7  10
ATOM     10  C   UNL     1      17.765  13.604 -21.107  0.00  0.00    +0.414 C 
ATOM     11  F   UNL     1      17.665  12.911 -22.281  0.00  0.00    -0.186 F 
ATOM     12  F   UNL     1      16.985  12.905 -20.221  0.00  0.00    -0.186 F 
BRANCH  10  13
ATOM     13  C   UNL     1      19.204  13.676 -20.623  0.00  0.00    +0.430 C 
ATOM     14  O   UNL     1      20.199  13.814 -21.320  0.00  0.00    -0.239 OA
ATOM     15  O   UNL     1      19.343  13.593 -19.282  0.00  0.00    -0.239 OA
ENDBRANCH  10  13
ENDBRANCH   7  10
ENDBRANCH   4   7
ENDBRANCH   1   4
BRANCH   1  16
ATOM     16  C   UNL     1      13.822  16.858 -20.522  0.00  0.00    +0.387 C 
ATOM     17  F   UNL     1      13.215  15.806 -19.914  0.00  0.00    -0.192 F 
ATOM     18  F   UNL     1      12.904  17.321 -21.424  0.00  0.00    -0.192 F 
BRANCH  16  19
ATOM     19  C   UNL     1      14.130  17.947 -19.522  0.00  0.00    +0.409 C 
ATOM     20  F   UNL     1      15.329  17.703 -18.921  0.00  0.00    -0.189 F 
ATOM     21  F   UNL     1      14.271  19.146 -20.152  0.00  0.00    -0.189 F 
BRANCH  19  22
ATOM     22  C   UNL     1      13.032  18.020 -18.478  0.00  0.00    +0.460 C 
ATOM     23  F   UNL     1      13.230  19.070 -17.639  0.00  0.00    -0.165 F 
ATOM     24  F   UNL     1      12.987  16.910 -17.707  0.00  0.00    -0.165 F 
ATOM     25  F   UNL     1      11.806  18.184 -19.023  0.00  0.00    -0.165 F 
ENDBRANCH  19  22
ENDBRANCH  16  19
ENDBRANCH   1  16
TORSDOF 7
ENDMDL
MODEL 2
REMARK VINA RESULT:    -7.603      2.370      5.584
REMARK INTER + INTRA:         -11.072
REMARK INTER:                 -10.904
REMARK INTRA:                  -0.168
REMARK UNBOUND:                -0.357
REMARK  Name = PFOA_perfluorooctanoic_acid_CID1036_multiconf
REMARK  7 active torsions:
REMARK  status: ('A' for Active; 'I' for Inactive)
REMARK    1  A    between atoms: C_1  and  C_4
REMARK    2  A    between atoms: C_4  and  C_5
REMARK    3  A    between atoms: C_5  and  C_6
REMARK    4  A    between atoms: C_6  and  C_7
REMARK    5  A    between atoms: C_7  and  C_8
REMARK    6  A    between atoms: C_8  and  C_9
REMARK    7  A    between atoms: C_9  and  C_10
REMARK                            x       y       z     vdW  Elec       q    Type
REMARK                         _______ _______ _______ _____ _____    ______ ____
ROOT
ATOM      1  C   UNL     1      15.340  15.785 -21.873  0.00  0.00    +0.384 C 
ATOM      2  F   UNL     1      16.289  16.744 -22.114  0.00  0.00    -0.192 F 
ATOM      3  F   UNL     1      14.897  15.419 -23.118  0.00  0.00    -0.192 F 
ENDROOT
BRANCH   1   4
ATOM      4  C   UNL     1      14.176  16.434 -21.130  0.00  0.00    +0.384 C 
ATOM      5  F   UNL     1      13.196  16.716 -22.040  0.00  0.00    -0.192 F 
ATOM      6  F   UNL     1      13.617  15.533 -20.279  0.00  0.00    -0.192 F 
BRANCH   4   7
ATOM      7  C   UNL     1      14.549  17.699 -20.384  0.00  0.00    +0.389 C 
ATOM      8  F   UNL     1      14.836  18.687 -21.282  0.00  0.00    -0.192 F 
ATOM      9  F   UNL     1      15.707  17.495 -19.696  0.00  0.00    -0.192 F 
BRANCH   7  10
ATOM     10  C   UNL     1      13.454  18.181 -19.446  0.00  0.00    +0.414 C 
ATOM     11  F   UNL     1      12.254  17.643 -19.820  0.00  0.00    -0.186 F 
ATOM     12  F   UNL     1      13.295  19.534 -19.606  0.00  0.00    -0.186 F 
BRANCH  10  13
ATOM     13  C   UNL     1      13.793  17.841 -18.004  0.00  0.00    +0.430 C 
ATOM     14  O   UNL     1      13.633  16.760 -17.456  0.00  0.00    -0.239 OA
ATOM     15  O   UNL     1      14.339  18.860 -17.307  0.00  0.00    -0.239 OA
ENDBRANCH  10  13
ENDBRANCH   7  10
ENDBRANCH   4   7
ENDBRANCH   1   4
BRANCH   1  16
ATOM     16  C   UNL     1      16.031  14.585 -21.239  0.00  0.00    +0.387 C 
ATOM     17  F   UNL     1      15.234  13.489 -21.331  0.00  0.00    -0.192 F 
ATOM     18  F   UNL     1      16.142  14.827 -19.897  0.00  0.00    -0.192 F 
BRANCH  16  19
ATOM     19  C   UNL     1      17.400  14.296 -21.807  0.00  0.00    +0.409 C 
ATOM     20  F   UNL     1      17.501  12.977 -22.135  0.00  0.00    -0.189 F 
ATOM     21  F   UNL     1      17.588  14.980 -22.970  0.00  0.00    -0.189 F 
BRANCH  19  22
ATOM     22  C   UNL     1      18.471  14.662 -20.797  0.00  0.00    +0.460 C 
ATOM     23  F   UNL     1      19.711  14.529 -21.334  0.00  0.00    -0.165 F 
ATOM     24  F   UNL     1      18.434  13.866 -19.704  0.00  0.00    -0.165 F 
ATOM     25  F   UNL     1      18.368  15.940 -20.369  0.00  0.00    -0.165 F 
ENDBRANCH  19  22
ENDBRANCH  16  19
ENDBRANCH   1  16
TORSDOF 7
ENDMDL
MODEL 3
REMARK VINA RESULT:    -7.579      2.915      6.249
REMARK INTER + INTRA:         -11.037
REMARK INTER:                 -10.793
REMARK INTRA:                  -0.244
REMARK UNBOUND:                -0.357
REMARK  Name = PFOA_perfluorooctanoic_acid_CID1036_multiconf
REMARK  7 active torsions:
REMARK  status: ('A' for Active; 'I' for Inactive)
REMARK    1  A    between atoms: C_1  and  C_4
REMARK    2  A    between atoms: C_4  and  C_5
REMARK    3  A    between atoms: C_5  and  C_6
REMARK    4  A    between atoms: C_6  and  C_7
REMARK    5  A    between atoms: C_7  and  C_8
REMARK    6  A    between atoms: C_8  and  C_9
REMARK    7  A    between atoms: C_9  and  C_10
REMARK                            x       y       z     vdW  Elec       q    Type
REMARK                         _______ _______ _______ _____ _____    ______ ____
ROOT
ATOM      1  C   UNL     1      15.246  16.482 -19.556  0.00  0.00    +0.384 C 
ATOM      2  F   UNL     1      14.741  15.302 -19.076  0.00  0.00    -0.192 F 
ATOM      3  F   UNL     1      16.131  16.895 -18.593  0.00  0.00    -0.192 F 
ENDROOT
BRANCH   1   4
ATOM      4  C   UNL     1      14.112  17.500 -19.622  0.00  0.00    +0.384 C 
ATOM      5  F   UNL     1      14.636  18.695 -20.026  0.00  0.00    -0.192 F 
ATOM      6  F   UNL     1      13.238  17.149 -20.603  0.00  0.00    -0.192 F 
BRANCH   4   7
ATOM      7  C   UNL     1      13.377  17.692 -18.310  0.00  0.00    +0.389 C 
ATOM      8  F   UNL     1      14.086  18.547 -17.515  0.00  0.00    -0.192 F 
ATOM      9  F   UNL     1      13.350  16.512 -17.629  0.00  0.00    -0.192 F 
BRANCH   7  10
ATOM     10  C   UNL     1      11.968  18.232 -18.490  0.00  0.00    +0.414 C 
ATOM     11  F   UNL     1      11.873  18.890 -19.685  0.00  0.00    -0.186 F 
ATOM     12  F   UNL     1      11.735  19.195 -17.542  0.00  0.00    -0.186 F 
BRANCH  10  13
ATOM     13  C   UNL     1      10.946  17.111 -18.388  0.00  0.00    +0.430 C 
ATOM     14  O   UNL     1      10.721  16.255 -19.232  0.00  0.00    -0.239 OA
ATOM     15  O   UNL     1      10.258  17.092 -17.227  0.00  0.00    -0.239 OA
ENDBRANCH  10  13
ENDBRANCH   7  10
ENDBRANCH   4   7
ENDBRANCH   1   4
BRANCH   1  16
ATOM     16  C   UNL     1      16.029  16.180 -20.827  0.00  0.00    +0.387 C 
ATOM     17  F   UNL     1      16.193  17.318 -21.552  0.00  0.00    -0.192 F 
ATOM     18  F   UNL     1      15.254  15.371 -21.613  0.00  0.00    -0.192 F 
BRANCH  16  19
ATOM     19  C   UNL     1      17.359  15.509 -20.582  0.00  0.00    +0.409 C 
ATOM     20  F   UNL     1      18.303  16.442 -20.272  0.00  0.00    -0.189 F 
ATOM     21  F   UNL     1      17.285  14.686 -19.500  0.00  0.00    -0.189 F 
BRANCH  19  22
ATOM     22  C   UNL     1      17.785  14.731 -21.813  0.00  0.00    +0.460 C 
ATOM     23  F   UNL     1      19.115  14.458 -21.778  0.00  0.00    -0.165 F 
ATOM     24  F   UNL     1      17.561  15.421 -22.955  0.00  0.00    -0.165 F 
ATOM     25  F   UNL     1      17.147  13.545 -21.926  0.00  0.00    -0.165 F 
ENDBRANCH  19  22
ENDBRANCH  16  19
ENDBRANCH   1  16
TORSDOF 7
ENDMDL
MODEL 4
REMARK VINA RESULT:    -7.571      2.735      5.826
REMARK INTER + INTRA:         -11.026
REMARK INTER:                 -10.576
REMARK INTRA:                  -0.450
REMARK UNBOUND:                -0.357
REMARK  Name = PFOA_perfluorooctanoic_acid_CID1036_multiconf
REMARK  7 active torsions:
REMARK  status: ('A' for Active; 'I' for Inactive)
REMARK    1  A    between atoms: C_1  and  C_4
REMARK    2  A    between atoms: C_4  and  C_5
REMARK    3  A    between atoms: C_5  and  C_6
REMARK    4  A    between atoms: C_6  and  C_7
REMARK    5  A    between atoms: C_7  and  C_8
REMARK    6  A    between atoms: C_8  and  C_9
REMARK    7  A    between atoms: C_9  and  C_10
REMARK                            x       y       z     vdW  Elec       q    Type
REMARK                         _______ _______ _______ _____ _____    ______ ____
ROOT
ATOM      1  C   UNL     1      15.607  16.649 -20.822  0.00  0.00    +0.384 C 
ATOM      2  F   UNL     1      15.361  17.269 -19.625  0.00  0.00    -0.192 F 
ATOM      3  F   UNL     1      16.491  17.478 -21.465  0.00  0.00    -0.192 F 
ENDROOT
BRANCH   1   4
ATOM      4  C   UNL     1      14.313  16.624 -21.628  0.00  0.00    +0.384 C 
ATOM      5  F   UNL     1      14.322  17.691 -22.481  0.00  0.00    -0.192 F 
ATOM      6  F   UNL     1      14.296  15.529 -22.434  0.00  0.00    -0.192 F 
BRANCH   4   7
ATOM      7  C   UNL     1      13.057  16.669 -20.780  0.00  0.00    +0.389 C 
ATOM      8  F   UNL     1      12.934  17.908 -20.220  0.00  0.00    -0.192 F 
ATOM      9  F   UNL     1      13.190  15.814 -19.728  0.00  0.00    -0.192 F 
BRANCH   7  10
ATOM     10  C   UNL     1      11.796  16.350 -21.566  0.00  0.00    +0.414 C 
ATOM     11  F   UNL     1      12.029  16.516 -22.903  0.00  0.00    -0.186 F 
ATOM     12  F   UNL     1      10.834  17.279 -21.262  0.00  0.00    -0.186 F 
BRANCH  10  13
ATOM     13  C   UNL     1      11.310  14.943 -21.255  0.00  0.00    +0.430 C 
ATOM     14  O   UNL     1      11.766  13.902 -21.704  0.00  0.00    -0.239 OA
ATOM     15  O   UNL     1      10.285  14.893 -20.378  0.00  0.00    -0.239 OA
ENDBRANCH  10  13
ENDBRANCH   7  10
ENDBRANCH   4   7
ENDBRANCH   1   4
BRANCH   1  16
ATOM     16  C   UNL     1      16.313  15.329 -20.535  0.00  0.00    +0.387 C 
ATOM     17  F   UNL     1      15.416  14.309 -20.560  0.00  0.00    -0.192 F 
ATOM     18  F   UNL     1      16.764  15.370 -19.244  0.00  0.00    -0.192 F 
BRANCH  16  19
ATOM     19  C   UNL     1      17.473  15.041 -21.458  0.00  0.00    +0.409 C 
ATOM     20  F   UNL     1      17.157  15.405 -22.732  0.00  0.00    -0.189 F 
ATOM     21  F   UNL     1      18.553  15.798 -21.116  0.00  0.00    -0.189 F 
BRANCH  19  22
ATOM     22  C   UNL     1      17.822  13.566 -21.412  0.00  0.00    +0.460 C 
ATOM     23  F   UNL     1      19.095  13.355 -21.836  0.00  0.00    -0.165 F 
ATOM     24  F   UNL     1      17.018  12.827 -22.211  0.00  0.00    -0.165 F 
ATOM     25  F   UNL     1      17.737  13.050 -20.166  0.00  0.00    -0.165 F 
ENDBRANCH  19  22
ENDBRANCH  16  19
ENDBRANCH   1  16
TORSDOF 7
ENDMDL
MODEL 5
REMARK VINA RESULT:    -7.555      1.723      3.192
REMARK INTER + INTRA:         -11.003
REMARK INTER:                 -10.568
REMARK INTRA:                  -0.435
REMARK UNBOUND:                -0.357
REMARK  Name = PFOA_perfluorooctanoic_acid_CID1036_multiconf
REMARK  7 active torsions:
REMARK  status: ('A' for Active; 'I' for Inactive)
REMARK    1  A    between atoms: C_1  and  C_4
REMARK    2  A    between atoms: C_4  and  C_5
REMARK    3  A    between atoms: C_5  and  C_6
REMARK    4  A    between atoms: C_6  and  C_7
REMARK    5  A    between atoms: C_7  and  C_8
REMARK    6  A    between atoms: C_8  and  C_9
REMARK    7  A    between atoms: C_9  and  C_10
REMARK                            x       y       z     vdW  Elec       q    Type
REMARK                         _______ _______ _______ _____ _____    ______ ____
ROOT
ATOM      1  C   UNL     1      13.359  17.554 -19.947  0.00  0.00    +0.384 C 
ATOM      2  F   UNL     1      12.704  17.257 -21.114  0.00  0.00    -0.192 F 
ATOM      3  F   UNL     1      13.241  18.915 -19.822  0.00  0.00    -0.192 F 
ENDROOT
BRANCH   1   4
ATOM      4  C   UNL     1      14.836  17.222 -20.125  0.00  0.00    +0.384 C 
ATOM      5  F   UNL     1      15.334  18.021 -21.116  0.00  0.00    -0.192 F 
ATOM      6  F   UNL     1      15.525  17.578 -19.008  0.00  0.00    -0.192 F 
BRANCH   4   7
ATOM      7  C   UNL     1      15.107  15.770 -20.467  0.00  0.00    +0.389 C 
ATOM      8  F   UNL     1      14.093  15.293 -21.247  0.00  0.00    -0.192 F 
ATOM      9  F   UNL     1      15.065  15.022 -19.330  0.00  0.00    -0.192 F 
BRANCH   7  10
ATOM     10  C   UNL     1      16.429  15.565 -21.189  0.00  0.00    +0.414 C 
ATOM     11  F   UNL     1      17.366  16.429 -20.694  0.00  0.00    -0.186 F 
ATOM     12  F   UNL     1      16.280  15.928 -22.503  0.00  0.00    -0.186 F 
BRANCH  10  13
ATOM     13  C   UNL     1      16.886  14.120 -21.073  0.00  0.00    +0.430 C 
ATOM     14  O   UNL     1      16.435  13.164 -21.687  0.00  0.00    -0.239 OA
ATOM     15  O   UNL     1      17.902  13.929 -20.205  0.00  0.00    -0.239 OA
ENDBRANCH  10  13
ENDBRANCH   7  10
ENDBRANCH   4   7
ENDBRANCH   1   4
BRANCH   1  16
ATOM     16  C   UNL     1      12.599  16.901 -18.799  0.00  0.00    +0.387 C 
ATOM     17  F   UNL     1      13.430  16.714 -17.740  0.00  0.00    -0.192 F 
ATOM     18  F   UNL     1      12.245  15.641 -19.195  0.00  0.00    -0.192 F 
BRANCH  16  19
ATOM     19  C   UNL     1      11.361  17.656 -18.377  0.00  0.00    +0.409 C 
ATOM     20  F   UNL     1      11.707  18.727 -17.608  0.00  0.00    -0.189 F 
ATOM     21  F   UNL     1      10.725  18.174 -19.464  0.00  0.00    -0.189 F 
BRANCH  19  22
ATOM     22  C   UNL     1      10.431  16.741 -17.602  0.00  0.00    +0.460 C 
ATOM     23  F   UNL     1       9.639  17.454 -16.760  0.00  0.00    -0.165 F 
ATOM     24  F   UNL     1      11.109  15.853 -16.840  0.00  0.00    -0.165 F 
ATOM     25  F   UNL     1       9.606  16.036 -18.408  0.00  0.00    -0.165 F 
ENDBRANCH  19  22
ENDBRANCH  16  19
ENDBRANCH   1  16
TORSDOF 7
ENDMDL
MODEL 6
REMARK VINA RESULT:    -7.511      2.706      5.976
REMARK INTER + INTRA:         -10.942
REMARK INTER:                 -10.623
REMARK INTRA:                  -0.319
REMARK UNBOUND:                -0.357
REMARK  Name = PFOA_perfluorooctanoic_acid_CID1036_multiconf
REMARK  7 active torsions:
REMARK  status: ('A' for Active; 'I' for Inactive)
REMARK    1  A    between atoms: C_1  and  C_4
REMARK    2  A    between atoms: C_4  and  C_5
REMARK    3  A    between atoms: C_5  and  C_6
REMARK    4  A    between atoms: C_6  and  C_7
REMARK    5  A    between atoms: C_7  and  C_8
REMARK    6  A    between atoms: C_8  and  C_9
REMARK    7  A    between atoms: C_9  and  C_10
REMARK                            x       y       z     vdW  Elec       q    Type
REMARK                         _______ _______ _______ _____ _____    ______ ____
ROOT
ATOM      1  C   UNL     1      15.974  15.435 -21.540  0.00  0.00    +0.384 C 
ATOM      2  F   UNL     1      16.344  15.400 -22.859  0.00  0.00    -0.192 F 
ATOM      3  F   UNL     1      15.122  14.370 -21.393  0.00  0.00    -0.192 F 
ENDROOT
BRANCH   1   4
ATOM      4  C   UNL     1      15.180  16.713 -21.296  0.00  0.00    +0.384 C 
ATOM      5  F   UNL     1      16.053  17.688 -20.903  0.00  0.00    -0.192 F 
ATOM      6  F   UNL     1      14.659  17.161 -22.469  0.00  0.00    -0.192 F 
BRANCH   4   7
ATOM      7  C   UNL     1      14.085  16.571 -20.257  0.00  0.00    +0.389 C 
ATOM      8  F   UNL     1      14.392  15.543 -19.414  0.00  0.00    -0.192 F 
ATOM      9  F   UNL     1      12.927  16.197 -20.869  0.00  0.00    -0.192 F 
BRANCH   7  10
ATOM     10  C   UNL     1      13.869  17.836 -19.443  0.00  0.00    +0.414 C 
ATOM     11  F   UNL     1      14.019  18.934 -20.244  0.00  0.00    -0.186 F 
ATOM     12  F   UNL     1      14.871  17.943 -18.513  0.00  0.00    -0.186 F 
BRANCH  10  13
ATOM     13  C   UNL     1      12.505  17.818 -18.772  0.00  0.00    +0.430 C 
ATOM     14  O   UNL     1      12.134  17.042 -17.904  0.00  0.00    -0.239 OA
ATOM     15  O   UNL     1      11.664  18.783 -19.200  0.00  0.00    -0.239 OA
ENDBRANCH  10  13
ENDBRANCH   7  10
ENDBRANCH   4   7
ENDBRANCH   1   4
BRANCH   1  16
ATOM     16  C   UNL     1      17.214  15.175 -20.694  0.00  0.00    +0.387 C 
ATOM     17  F   UNL     1      17.007  15.607 -19.423  0.00  0.00    -0.192 F 
ATOM     18  F   UNL     1      18.221  15.966 -21.175  0.00  0.00    -0.192 F 
BRANCH  16  19
ATOM     19  C   UNL     1      17.668  13.734 -20.699  0.00  0.00    +0.409 C 
ATOM     20  F   UNL     1      16.740  12.950 -20.082  0.00  0.00    -0.189 F 
ATOM     21  F   UNL     1      17.754  13.267 -21.976  0.00  0.00    -0.189 F 
BRANCH  19  22
ATOM     22  C   UNL     1      19.005  13.606 -19.995  0.00  0.00    +0.460 C 
ATOM     23  F   UNL     1      19.165  12.360 -19.479  0.00  0.00    -0.165 F 
ATOM     24  F   UNL     1      19.122  14.472 -18.962  0.00  0.00    -0.165 F 
ATOM     25  F   UNL     1      20.052  13.822 -20.822  0.00  0.00    -0.165 F 
ENDBRANCH  19  22
ENDBRANCH  16  19
ENDBRANCH   1  16
TORSDOF 7
ENDMDL
MODEL 7
REMARK VINA RESULT:    -7.507      2.925      5.911
REMARK INTER + INTRA:         -10.936
REMARK INTER:                 -10.587
REMARK INTRA:                  -0.349
REMARK UNBOUND:                -0.357
REMARK  Name = PFOA_perfluorooctanoic_acid_CID1036_multiconf
REMARK  7 active torsions:
REMARK  status: ('A' for Active; 'I' for Inactive)
REMARK    1  A    between atoms: C_1  and  C_4
REMARK    2  A    between atoms: C_4  and  C_5
REMARK    3  A    between atoms: C_5  and  C_6
REMARK    4  A    between atoms: C_6  and  C_7
REMARK    5  A    between atoms: C_7  and  C_8
REMARK    6  A    between atoms: C_8  and  C_9
REMARK    7  A    between atoms: C_9  and  C_10
REMARK                            x       y       z     vdW  Elec       q    Type
REMARK                         _______ _______ _______ _____ _____    ______ ____
ROOT
ATOM      1  C   UNL     1      15.400  16.222 -21.189  0.00  0.00    +0.384 C 
ATOM      2  F   UNL     1      16.109  16.904 -22.142  0.00  0.00    -0.192 F 
ATOM      3  F   UNL     1      14.313  15.722 -21.860  0.00  0.00    -0.192 F 
ENDROOT
BRANCH   1   4
ATOM      4  C   UNL     1      14.897  17.222 -20.154  0.00  0.00    +0.384 C 
ATOM      5  F   UNL     1      15.761  17.210 -19.096  0.00  0.00    -0.192 F 
ATOM      6  F   UNL     1      14.976  18.482 -20.658  0.00  0.00    -0.192 F 
BRANCH   4   7
ATOM      7  C   UNL     1      13.491  16.944 -19.659  0.00  0.00    +0.389 C 
ATOM      8  F   UNL     1      13.306  15.595 -19.557  0.00  0.00    -0.192 F 
ATOM      9  F   UNL     1      12.591  17.358 -20.594  0.00  0.00    -0.192 F 
BRANCH   7  10
ATOM     10  C   UNL     1      13.195  17.590 -18.315  0.00  0.00    +0.414 C 
ATOM     11  F   UNL     1      13.797  18.816 -18.248  0.00  0.00    -0.186 F 
ATOM     12  F   UNL     1      13.792  16.853 -17.325  0.00  0.00    -0.186 F 
BRANCH  10  13
ATOM     13  C   UNL     1      11.696  17.692 -18.087  0.00  0.00    +0.430 C 
ATOM     14  O   UNL     1      10.941  16.775 -17.799  0.00  0.00    -0.239 OA
ATOM     15  O   UNL     1      11.200  18.942 -18.209  0.00  0.00    -0.239 OA
ENDBRANCH  10  13
ENDBRANCH   7  10
ENDBRANCH   4   7
ENDBRANCH   1   4
BRANCH   1  16
ATOM     16  C   UNL     1      16.251  15.050 -20.716  0.00  0.00    +0.387 C 
ATOM     17  F   UNL     1      15.828  13.902 -21.307  0.00  0.00    -0.192 F 
ATOM     18  F   UNL     1      16.007  14.868 -19.382  0.00  0.00    -0.192 F 
BRANCH  16  19
ATOM     19  C   UNL     1      17.733  15.244 -20.928  0.00  0.00    +0.409 C 
ATOM     20  F   UNL     1      18.040  15.085 -22.246  0.00  0.00    -0.189 F 
ATOM     21  F   UNL     1      18.096  16.519 -20.616  0.00  0.00    -0.189 F 
BRANCH  19  22
ATOM     22  C   UNL     1      18.515  14.249 -20.091  0.00  0.00    +0.460 C 
ATOM     23  F   UNL     1      18.687  14.710 -18.825  0.00  0.00    -0.165 F 
ATOM     24  F   UNL     1      19.749  14.019 -20.593  0.00  0.00    -0.165 F 
ATOM     25  F   UNL     1      17.892  13.054 -19.987  0.00  0.00    -0.165 F 
ENDBRANCH  19  22
ENDBRANCH  16  19
ENDBRANCH   1  16
TORSDOF 7
ENDMDL
MODEL 8
REMARK VINA RESULT:    -7.506      3.011      6.108
REMARK INTER + INTRA:         -10.934
REMARK INTER:                 -10.725
REMARK INTRA:                  -0.209
REMARK UNBOUND:                -0.357
REMARK  Name = PFOA_perfluorooctanoic_acid_CID1036_multiconf
REMARK  7 active torsions:
REMARK  status: ('A' for Active; 'I' for Inactive)
REMARK    1  A    between atoms: C_1  and  C_4
REMARK    2  A    between atoms: C_4  and  C_5
REMARK    3  A    between atoms: C_5  and  C_6
REMARK    4  A    between atoms: C_6  and  C_7
REMARK    5  A    between atoms: C_7  and  C_8
REMARK    6  A    between atoms: C_8  and  C_9
REMARK    7  A    between atoms: C_9  and  C_10
REMARK                            x       y       z     vdW  Elec       q    Type
REMARK                         _______ _______ _______ _____ _____    ______ ____
ROOT
ATOM      1  C   UNL     1      14.481  17.418 -20.767  0.00  0.00    +0.384 C 
ATOM      2  F   UNL     1      14.624  18.368 -21.744  0.00  0.00    -0.192 F 
ATOM      3  F   UNL     1      13.371  16.704 -21.141  0.00  0.00    -0.192 F 
ENDROOT
BRANCH   1   4
ATOM      4  C   UNL     1      14.168  18.122 -19.451  0.00  0.00    +0.384 C 
ATOM      5  F   UNL     1      15.348  18.355 -18.803  0.00  0.00    -0.192 F 
ATOM      6  F   UNL     1      13.655  19.357 -19.703  0.00  0.00    -0.192 F 
BRANCH   4   7
ATOM      7  C   UNL     1      13.239  17.345 -18.540  0.00  0.00    +0.389 C 
ATOM      8  F   UNL     1      13.699  17.418 -17.256  0.00  0.00    -0.192 F 
ATOM      9  F   UNL     1      13.290  16.023 -18.862  0.00  0.00    -0.192 F 
BRANCH   7  10
ATOM     10  C   UNL     1      11.804  17.847 -18.584  0.00  0.00    +0.414 C 
ATOM     11  F   UNL     1      11.556  18.432 -19.795  0.00  0.00    -0.186 F 
ATOM     12  F   UNL     1      11.658  18.859 -17.671  0.00  0.00    -0.186 F 
BRANCH  10  13
ATOM     13  C   UNL     1      10.830  16.714 -18.302  0.00  0.00    +0.430 C 
ATOM     14  O   UNL     1      10.488  16.309 -17.200  0.00  0.00    -0.239 OA
ATOM     15  O   UNL     1      10.307  16.144 -19.408  0.00  0.00    -0.239 OA
ENDBRANCH  10  13
ENDBRANCH   7  10
ENDBRANCH   4   7
ENDBRANCH   1   4
BRANCH   1  16
ATOM     16  C   UNL     1      15.688  16.491 -20.828  0.00  0.00    +0.387 C 
ATOM     17  F   UNL     1      16.023  16.082 -19.576  0.00  0.00    -0.192 F 
ATOM     18  F   UNL     1      16.759  17.227 -21.255  0.00  0.00    -0.192 F 
BRANCH  16  19
ATOM     19  C   UNL     1      15.503  15.304 -21.743  0.00  0.00    +0.409 C 
ATOM     20  F   UNL     1      14.645  14.408 -21.179  0.00  0.00    -0.189 F 
ATOM     21  F   UNL     1      14.918  15.690 -22.911  0.00  0.00    -0.189 F 
BRANCH  19  22
ATOM     22  C   UNL     1      16.841  14.641 -22.013  0.00  0.00    +0.460 C 
ATOM     23  F   UNL     1      17.562  15.352 -22.918  0.00  0.00    -0.165 F 
ATOM     24  F   UNL     1      16.698  13.396 -22.523  0.00  0.00    -0.165 F 
ATOM     25  F   UNL     1      17.604  14.538 -20.903  0.00  0.00    -0.165 F 
ENDBRANCH  19  22
ENDBRANCH  16  19
ENDBRANCH   1  16
TORSDOF 7
ENDMDL
MODEL 9
REMARK VINA RESULT:    -7.487      1.183      2.107
REMARK INTER + INTRA:         -10.908
REMARK INTER:                 -10.872
REMARK INTRA:                  -0.036
REMARK UNBOUND:                -0.357
REMARK  Name = PFOA_perfluorooctanoic_acid_CID1036_multiconf
REMARK  7 active torsions:
REMARK  status: ('A' for Active; 'I' for Inactive)
REMARK    1  A    between atoms: C_1  and  C_4
REMARK    2  A    between atoms: C_4  and  C_5
REMARK    3  A    between atoms: C_5  and  C_6
REMARK    4  A    between atoms: C_6  and  C_7
REMARK    5  A    between atoms: C_7  and  C_8
REMARK    6  A    between atoms: C_8  and  C_9
REMARK    7  A    between atoms: C_9  and  C_10
REMARK                            x       y       z     vdW  Elec       q    Type
REMARK                         _______ _______ _______ _____ _____    ______ ____
ROOT
ATOM      1  C   UNL     1      14.883  17.162 -20.554  0.00  0.00    +0.384 C 
ATOM      2  F   UNL     1      14.951  18.103 -21.547  0.00  0.00    -0.192 F 
ATOM      3  F   UNL     1      15.666  17.667 -19.547  0.00  0.00    -0.192 F 
ENDROOT
BRANCH   1   4
ATOM      4  C   UNL     1      15.535  15.879 -21.060  0.00  0.00    +0.384 C 
ATOM      5  F   UNL     1      14.553  15.073 -21.563  0.00  0.00    -0.192 F 
ATOM      6  F   UNL     1      16.336  16.160 -22.122  0.00  0.00    -0.192 F 
BRANCH   4   7
ATOM      7  C   UNL     1      16.314  15.122 -20.002  0.00  0.00    +0.389 C 
ATOM      8  F   UNL     1      16.103  13.783 -20.157  0.00  0.00    -0.192 F 
ATOM      9  F   UNL     1      15.813  15.422 -18.771  0.00  0.00    -0.192 F 
BRANCH   7  10
ATOM     10  C   UNL     1      17.807  15.401 -20.049  0.00  0.00    +0.414 C 
ATOM     11  F   UNL     1      18.249  15.769 -18.808  0.00  0.00    -0.186 F 
ATOM     12  F   UNL     1      18.030  16.500 -20.838  0.00  0.00    -0.186 F 
BRANCH  10  13
ATOM     13  C   UNL     1      18.563  14.192 -20.574  0.00  0.00    +0.430 C 
ATOM     14  O   UNL     1      18.682  13.862 -21.746  0.00  0.00    -0.239 OA
ATOM     15  O   UNL     1      19.159  13.451 -19.616  0.00  0.00    -0.239 OA
ENDBRANCH  10  13
ENDBRANCH   7  10
ENDBRANCH   4   7
ENDBRANCH   1   4
BRANCH   1  16
ATOM     16  C   UNL     1      13.445  17.101 -20.057  0.00  0.00    +0.387 C 
ATOM     17  F   UNL     1      13.209  15.901 -19.465  0.00  0.00    -0.192 F 
ATOM     18  F   UNL     1      12.624  17.121 -21.151  0.00  0.00    -0.192 F 
BRANCH  16  19
ATOM     19  C   UNL     1      13.068  18.234 -19.131  0.00  0.00    +0.409 C 
ATOM     20  F   UNL     1      13.756  18.127 -17.960  0.00  0.00    -0.189 F 
ATOM     21  F   UNL     1      13.438  19.430 -19.668  0.00  0.00    -0.189 F 
BRANCH  19  22
ATOM     22  C   UNL     1      11.576  18.211 -18.860  0.00  0.00    +0.460 C 
ATOM     23  F   UNL     1      11.236  19.149 -17.939  0.00  0.00    -0.165 F 
ATOM     24  F   UNL     1      11.165  17.019 -18.370  0.00  0.00    -0.165 F 
ATOM     25  F   UNL     1      10.842  18.468 -19.965  0.00  0.00    -0.165 F 
ENDBRANCH  19  22
ENDBRANCH  16  19
ENDBRANCH   1  16
TORSDOF 7
ENDMDL
MODEL 10
REMARK VINA RESULT:    -7.475      1.371      3.021
REMARK INTER + INTRA:         -10.890
REMARK INTER:                 -10.538
REMARK INTRA:                  -0.352
REMARK UNBOUND:                -0.357
REMARK  Name = PFOA_perfluorooctanoic_acid_CID1036_multiconf
REMARK  7 active torsions:
REMARK  status: ('A' for Active; 'I' for Inactive)
REMARK    1  A    between atoms: C_1  and  C_4
REMARK    2  A    between atoms: C_4  and  C_5
REMARK    3  A    between atoms: C_5  and  C_6
REMARK    4  A    between atoms: C_6  and  C_7
REMARK    5  A    between atoms: C_7  and  C_8
REMARK    6  A    between atoms: C_8  and  C_9
REMARK    7  A    between atoms: C_9  and  C_10
REMARK                            x       y       z     vdW  Elec       q    Type
REMARK                         _______ _______ _______ _____ _____    ______ ____
ROOT
ATOM      1  C   UNL     1      14.698  16.995 -18.784  0.00  0.00    +0.384 C 
ATOM      2  F   UNL     1      15.695  17.598 -18.063  0.00  0.00    -0.192 F 
ATOM      3  F   UNL     1      14.422  15.842 -18.094  0.00  0.00    -0.192 F 
ENDROOT
BRANCH   1   4
ATOM      4  C   UNL     1      15.258  16.605 -20.148  0.00  0.00    +0.384 C 
ATOM      5  F   UNL     1      14.215  16.218 -20.941  0.00  0.00    -0.192 F 
ATOM      6  F   UNL     1      15.777  17.703 -20.761  0.00  0.00    -0.192 F 
BRANCH   4   7
ATOM      7  C   UNL     1      16.290  15.496 -20.098  0.00  0.00    +0.389 C 
ATOM      8  F   UNL     1      15.655  14.292 -19.989  0.00  0.00    -0.192 F 
ATOM      9  F   UNL     1      17.027  15.615 -18.959  0.00  0.00    -0.192 F 
BRANCH   7  10
ATOM     10  C   UNL     1      17.197  15.472 -21.317  0.00  0.00    +0.414 C 
ATOM     11  F   UNL     1      18.042  16.547 -21.287  0.00  0.00    -0.186 F 
ATOM     12  F   UNL     1      16.436  15.658 -22.443  0.00  0.00    -0.186 F 
BRANCH  10  13
ATOM     13  C   UNL     1      17.964  14.162 -21.390  0.00  0.00    +0.430 C 
ATOM     14  O   UNL     1      18.985  13.882 -20.777  0.00  0.00    -0.239 OA
ATOM     15  O   UNL     1      17.415  13.244 -22.214  0.00  0.00    -0.239 OA
ENDBRANCH  10  13
ENDBRANCH   7  10
ENDBRANCH   4   7
ENDBRANCH   1   4
BRANCH   1  16
ATOM     16  C   UNL     1      13.467  17.891 -18.731  0.00  0.00    +0.387 C 
ATOM     17  F   UNL     1      13.408  18.665 -19.846  0.00  0.00    -0.192 F 
ATOM     18  F   UNL     1      13.636  18.772 -17.699  0.00  0.00    -0.192 F 
BRANCH  16  19
ATOM     19  C   UNL     1      12.171  17.140 -18.535  0.00  0.00    +0.409 C 
ATOM     20  F   UNL     1      12.072  16.134 -19.449  0.00  0.00    -0.189 F 
ATOM     21  F   UNL     1      12.151  16.534 -17.316  0.00  0.00    -0.189 F 
BRANCH  19  22
ATOM     22  C   UNL     1      10.994  18.086 -18.678  0.00  0.00    +0.460 C 
ATOM     23  F   UNL     1      11.232  19.258 -18.034  0.00  0.00    -0.165 F 
ATOM     24  F   UNL     1       9.861  17.573 -18.145  0.00  0.00    -0.165 F 
ATOM     25  F   UNL     1      10.729  18.397 -19.966  0.00  0.00    -0.165 F 
ENDBRANCH  19  22
ENDBRANCH  16  19
ENDBRANCH   1  16
TORSDOF 7
ENDMDL
