MODEL 1
REMARK VINA RESULT:    -8.124      0.000      0.000
REMARK INTER + INTRA:         -10.897
REMARK INTER:                 -11.449
REMARK INTRA:                   0.552
REMARK UNBOUND:                 0.552
REMARK  Name = PFOA_perfluorooctanoic_acid_CID1036_multiconf
REMARK  7 active torsions:
REMARK  status: ('A' for Active; 'I' for Inactive)
REMARK    1  A    between atoms: C_1  and  C_4
REMARK    2  A    between atoms: C_4  and  C_5
REMARK    3  A    between atoms: C_5  and  C_6
REMARK    4  A    between atoms: C_6  and  C_7
REMARK    5  A    between atoms: C_7  and  C_8
REMARK    6  A    between atoms: C_8  and  C_9
REMARK    7  A    between atoms: C_9  and  C_10
REMARK                            x       y       z     vdW  Elec       q    Type
REMARK                         _______ _______ _______ _____ _____    ______ ____
ROOT
ATOM      1  C   UNL     1     -20.578 -15.028  -1.960  0.00  0.00    +0.384 C 
ATOM      2  F   UNL     1     -19.750 -16.090  -1.700  0.00  0.00    -0.192 F 
ATOM      3  F   UNL     1     -21.742 -15.329  -1.300  0.00  0.00    -0.192 F 
ENDROOT
BRANCH   1   4
ATOM      4  C   UNL     1     -20.876 -15.003  -3.455  0.00  0.00    +0.384 C 
ATOM      5  F   UNL     1     -22.151 -14.544  -3.626  0.00  0.00    -0.192 F 
ATOM      6  F   UNL     1     -20.085 -14.079  -4.065  0.00  0.00    -0.192 F 
BRANCH   4   7
ATOM      7  C   UNL     1     -20.730 -16.349  -4.137  0.00  0.00    +0.389 C 
ATOM      8  F   UNL     1     -21.636 -17.223  -3.610  0.00  0.00    -0.192 F 
ATOM      9  F   UNL     1     -19.510 -16.877  -3.839  0.00  0.00    -0.192 F 
BRANCH   7  10
ATOM     10  C   UNL     1     -20.923 -16.277  -5.643  0.00  0.00    +0.414 C 
ATOM     11  F   UNL     1     -19.789 -15.793  -6.233  0.00  0.00    -0.186 F 
ATOM     12  F   UNL     1     -21.888 -15.344  -5.924  0.00  0.00    -0.186 F 
BRANCH  10  13
ATOM     13  C   UNL     1     -21.305 -17.639  -6.200  0.00  0.00    +0.430 C 
ATOM     14  O   UNL     1     -20.785 -18.710  -5.922  0.00  0.00    -0.239 OA
ATOM     15  O   UNL     1     -22.336 -17.611  -7.072  0.00  0.00    -0.239 OA
ENDBRANCH  10  13
ENDBRANCH   7  10
ENDBRANCH   4   7
ENDBRANCH   1   4
BRANCH   1  16
ATOM     16  C   UNL     1     -19.970 -13.788  -1.317  0.00  0.00    +0.387 C 
ATOM     17  F   UNL     1     -20.352 -12.677  -2.000  0.00  0.00    -0.192 F 
ATOM     18  F   UNL     1     -18.614 -13.854  -1.481  0.00  0.00    -0.192 F 
BRANCH  16  19
ATOM     19  C   UNL     1     -20.286 -13.643   0.153  0.00  0.00    +0.409 C 
ATOM     20  F   UNL     1     -20.409 -12.325   0.476  0.00  0.00    -0.189 F 
ATOM     21  F   UNL     1     -21.492 -14.207   0.439  0.00  0.00    -0.189 F 
BRANCH  19  22
ATOM     22  C   UNL     1     -19.190 -14.280   0.987  0.00  0.00    +0.460 C 
ATOM     23  F   UNL     1     -19.428 -14.109   2.313  0.00  0.00    -0.165 F 
ATOM     24  F   UNL     1     -17.978 -13.736   0.736  0.00  0.00    -0.165 F 
ATOM     25  F   UNL     1     -19.087 -15.612   0.780  0.00  0.00    -0.165 F 
ENDBRANCH  19  22
ENDBRANCH  16  19
ENDBRANCH   1  16
TORSDOF 7
ENDMDL
MODEL 2
REMARK VINA RESULT:    -8.108      2.588      6.354
REMARK INTER + INTRA:         -10.874
REMARK INTER:                 -11.041
REMARK INTRA:                   0.167
REMARK UNBOUND:                 0.552
REMARK  Name = PFOA_perfluorooctanoic_acid_CID1036_multiconf
REMARK  7 active torsions:
REMARK  status: ('A' for Active; 'I' for Inactive)
REMARK    1  A    between atoms: C_1  and  C_4
REMARK    2  A    between atoms: C_4  and  C_5
REMARK    3  A    between atoms: C_5  and  C_6
REMARK    4  A    between atoms: C_6  and  C_7
REMARK    5  A    between atoms: C_7  and  C_8
REMARK    6  A    between atoms: C_8  and  C_9
REMARK    7  A    between atoms: C_9  and  C_10
REMARK                            x       y       z     vdW  Elec       q    Type
REMARK                         _______ _______ _______ _____ _____    ______ ____
ROOT
ATOM      1  C   UNL     1     -20.860 -15.251  -3.879  0.00  0.00    +0.384 C 
ATOM      2  F   UNL     1     -20.036 -14.307  -4.435  0.00  0.00    -0.192 F 
ATOM      3  F   UNL     1     -22.125 -14.749  -4.054  0.00  0.00    -0.192 F 
ENDROOT
BRANCH   1   4
ATOM      4  C   UNL     1     -20.580 -15.313  -2.381  0.00  0.00    +0.384 C 
ATOM      5  F   UNL     1     -21.735 -15.678  -1.748  0.00  0.00    -0.192 F 
ATOM      6  F   UNL     1     -19.703 -16.318  -2.120  0.00  0.00    -0.192 F 
BRANCH   4   7
ATOM      7  C   UNL     1     -20.075 -14.011  -1.792  0.00  0.00    +0.389 C 
ATOM      8  F   UNL     1     -20.668 -12.963  -2.436  0.00  0.00    -0.192 F 
ATOM      9  F   UNL     1     -18.744 -13.882  -2.053  0.00  0.00    -0.192 F 
BRANCH   7  10
ATOM     10  C   UNL     1     -20.336 -13.891  -0.300  0.00  0.00    +0.414 C 
ATOM     11  F   UNL     1     -21.551 -14.440   0.003  0.00  0.00    -0.186 F 
ATOM     12  F   UNL     1     -20.461 -12.565   0.026  0.00  0.00    -0.186 F 
BRANCH  10  13
ATOM     13  C   UNL     1     -19.216 -14.542   0.496  0.00  0.00    +0.430 C 
ATOM     14  O   UNL     1     -18.941 -15.733   0.521  0.00  0.00    -0.239 OA
ATOM     15  O   UNL     1     -18.471 -13.676   1.214  0.00  0.00    -0.239 OA
ENDBRANCH  10  13
ENDBRANCH   7  10
ENDBRANCH   4   7
ENDBRANCH   1   4
BRANCH   1  16
ATOM     16  C   UNL     1     -20.736 -16.529  -4.697  0.00  0.00    +0.387 C 
ATOM     17  F   UNL     1     -21.557 -17.485  -4.191  0.00  0.00    -0.192 F 
ATOM     18  F   UNL     1     -19.472 -17.020  -4.516  0.00  0.00    -0.192 F 
BRANCH  16  19
ATOM     19  C   UNL     1     -20.988 -16.338  -6.174  0.00  0.00    +0.409 C 
ATOM     20  F   UNL     1     -21.958 -15.400  -6.364  0.00  0.00    -0.189 F 
ATOM     21  F   UNL     1     -19.875 -15.847  -6.787  0.00  0.00    -0.189 F 
BRANCH  19  22
ATOM     22  C   UNL     1     -21.406 -17.652  -6.806  0.00  0.00    +0.460 C 
ATOM     23  F   UNL     1     -21.158 -17.649  -8.141  0.00  0.00    -0.165 F 
ATOM     24  F   UNL     1     -22.730 -17.890  -6.657  0.00  0.00    -0.165 F 
ATOM     25  F   UNL     1     -20.745 -18.711  -6.290  0.00  0.00    -0.165 F 
ENDBRANCH  19  22
ENDBRANCH  16  19
ENDBRANCH   1  16
TORSDOF 7
ENDMDL
MODEL 3
REMARK VINA RESULT:    -8.022      1.278      2.475
REMARK INTER + INTRA:         -10.752
REMARK INTER:                 -10.736
REMARK INTRA:                  -0.016
REMARK UNBOUND:                 0.552
REMARK  Name = PFOA_perfluorooctanoic_acid_CID1036_multiconf
REMARK  7 active torsions:
REMARK  status: ('A' for Active; 'I' for Inactive)
REMARK    1  A    between atoms: C_1  and  C_4
REMARK    2  A    between atoms: C_4  and  C_5
REMARK    3  A    between atoms: C_5  and  C_6
REMARK    4  A    between atoms: C_6  and  C_7
REMARK    5  A    between atoms: C_7  and  C_8
REMARK    6  A    between atoms: C_8  and  C_9
REMARK    7  A    between atoms: C_9  and  C_10
REMARK                            x       y       z     vdW  Elec       q    Type
REMARK                         _______ _______ _______ _____ _____    ______ ____
ROOT
ATOM      1  C   UNL     1     -20.962 -14.769  -2.260  0.00  0.00    +0.384 C 
ATOM      2  F   UNL     1     -22.323 -14.642  -2.165  0.00  0.00    -0.192 F 
ATOM      3  F   UNL     1     -20.533 -13.551  -2.723  0.00  0.00    -0.192 F 
ENDROOT
BRANCH   1   4
ATOM      4  C   UNL     1     -20.649 -15.815  -3.325  0.00  0.00    +0.384 C 
ATOM      5  F   UNL     1     -19.335 -16.169  -3.200  0.00  0.00    -0.192 F 
ATOM      6  F   UNL     1     -21.345 -16.954  -3.067  0.00  0.00    -0.192 F 
BRANCH   4   7
ATOM      7  C   UNL     1     -20.911 -15.351  -4.744  0.00  0.00    +0.389 C 
ATOM      8  F   UNL     1     -20.011 -14.381  -5.076  0.00  0.00    -0.192 F 
ATOM      9  F   UNL     1     -22.129 -14.743  -4.803  0.00  0.00    -0.192 F 
BRANCH   7  10
ATOM     10  C   UNL     1     -20.831 -16.476  -5.763  0.00  0.00    +0.414 C 
ATOM     11  F   UNL     1     -21.823 -17.387  -5.526  0.00  0.00    -0.186 F 
ATOM     12  F   UNL     1     -19.665 -17.171  -5.567  0.00  0.00    -0.186 F 
BRANCH  10  13
ATOM     13  C   UNL     1     -20.905 -15.926  -7.178  0.00  0.00    +0.430 C 
ATOM     14  O   UNL     1     -19.973 -15.487  -7.836  0.00  0.00    -0.239 OA
ATOM     15  O   UNL     1     -22.140 -15.964  -7.723  0.00  0.00    -0.239 OA
ENDBRANCH  10  13
ENDBRANCH   7  10
ENDBRANCH   4   7
ENDBRANCH   1   4
BRANCH   1  16
ATOM     16  C   UNL     1     -20.407 -14.969  -0.856  0.00  0.00    +0.387 C 
ATOM     17  F   UNL     1     -19.635 -16.087  -0.818  0.00  0.00    -0.192 F 
ATOM     18  F   UNL     1     -21.459 -15.239  -0.025  0.00  0.00    -0.192 F 
BRANCH  16  19
ATOM     19  C   UNL     1     -19.646 -13.778  -0.323  0.00  0.00    +0.409 C 
ATOM     20  F   UNL     1     -18.507 -13.590  -1.048  0.00  0.00    -0.189 F 
ATOM     21  F   UNL     1     -20.375 -12.639  -0.479  0.00  0.00    -0.189 F 
BRANCH  19  22
ATOM     22  C   UNL     1     -19.300 -13.992   1.139  0.00  0.00    +0.460 C 
ATOM     23  F   UNL     1     -18.575 -12.952   1.623  0.00  0.00    -0.165 F 
ATOM     24  F   UNL     1     -18.557 -15.106   1.329  0.00  0.00    -0.165 F 
ATOM     25  F   UNL     1     -20.396 -14.100   1.922  0.00  0.00    -0.165 F 
ENDBRANCH  19  22
ENDBRANCH  16  19
ENDBRANCH   1  16
TORSDOF 7
ENDMDL
MODEL 4
REMARK VINA RESULT:    -7.942     12.575     13.792
REMARK INTER + INTRA:         -10.640
REMARK INTER:                 -10.614
REMARK INTRA:                  -0.026
REMARK UNBOUND:                 0.552
REMARK  Name = PFOA_perfluorooctanoic_acid_CID1036_multiconf
REMARK  7 active torsions:
REMARK  status: ('A' for Active; 'I' for Inactive)
REMARK    1  A    between atoms: C_1  and  C_4
REMARK    2  A    between atoms: C_4  and  C_5
REMARK    3  A    between atoms: C_5  and  C_6
REMARK    4  A    between atoms: C_6  and  C_7
REMARK    5  A    between atoms: C_7  and  C_8
REMARK    6  A    between atoms: C_8  and  C_9
REMARK    7  A    between atoms: C_9  and  C_10
REMARK                            x       y       z     vdW  Elec       q    Type
REMARK                         _______ _______ _______ _____ _____    ______ ____
ROOT
ATOM      1  C   UNL     1     -11.845  -5.375  -6.457  0.00  0.00    +0.384 C 
ATOM      2  F   UNL     1     -12.956  -5.411  -7.258  0.00  0.00    -0.192 F 
ATOM      3  F   UNL     1     -10.973  -4.546  -7.115  0.00  0.00    -0.192 F 
ENDROOT
BRANCH   1   4
ATOM      4  C   UNL     1     -11.232  -6.770  -6.419  0.00  0.00    +0.384 C 
ATOM      5  F   UNL     1     -10.021  -6.686  -5.790  0.00  0.00    -0.192 F 
ATOM      6  F   UNL     1     -11.983  -7.580  -5.626  0.00  0.00    -0.192 F 
BRANCH   4   7
ATOM      7  C   UNL     1     -11.046  -7.401  -7.785  0.00  0.00    +0.389 C 
ATOM      8  F   UNL     1     -10.667  -6.441  -8.678  0.00  0.00    -0.192 F 
ATOM      9  F   UNL     1     -12.246  -7.858  -8.239  0.00  0.00    -0.192 F 
BRANCH   7  10
ATOM     10  C   UNL     1     -10.017  -8.519  -7.789  0.00  0.00    +0.414 C 
ATOM     11  F   UNL     1      -8.823  -8.053  -7.311  0.00  0.00    -0.186 F 
ATOM     12  F   UNL     1      -9.757  -8.880  -9.086  0.00  0.00    -0.186 F 
BRANCH  10  13
ATOM     13  C   UNL     1     -10.513  -9.709  -6.983  0.00  0.00    +0.430 C 
ATOM     14  O   UNL     1     -11.398 -10.488  -7.308  0.00  0.00    -0.239 OA
ATOM     15  O   UNL     1      -9.870  -9.891  -5.810  0.00  0.00    -0.239 OA
ENDBRANCH  10  13
ENDBRANCH   7  10
ENDBRANCH   4   7
ENDBRANCH   1   4
BRANCH   1  16
ATOM     16  C   UNL     1     -12.232  -4.712  -5.140  0.00  0.00    +0.387 C 
ATOM     17  F   UNL     1     -12.332  -5.649  -4.162  0.00  0.00    -0.192 F 
ATOM     18  F   UNL     1     -13.498  -4.213  -5.281  0.00  0.00    -0.192 F 
BRANCH  16  19
ATOM     19  C   UNL     1     -11.302  -3.599  -4.718  0.00  0.00    +0.409 C 
ATOM     20  F   UNL     1     -10.006  -3.980  -4.898  0.00  0.00    -0.189 F 
ATOM     21  F   UNL     1     -11.478  -2.506  -5.511  0.00  0.00    -0.189 F 
BRANCH  19  22
ATOM     22  C   UNL     1     -11.541  -3.245  -3.263  0.00  0.00    +0.460 C 
ATOM     23  F   UNL     1     -11.109  -1.986  -2.993  0.00  0.00    -0.165 F 
ATOM     24  F   UNL     1     -10.878  -4.072  -2.422  0.00  0.00    -0.165 F 
ATOM     25  F   UNL     1     -12.849  -3.288  -2.924  0.00  0.00    -0.165 F 
ENDBRANCH  19  22
ENDBRANCH  16  19
ENDBRANCH   1  16
TORSDOF 7
ENDMDL
MODEL 5
REMARK VINA RESULT:    -7.895     12.111     13.228
REMARK INTER + INTRA:         -10.573
REMARK INTER:                 -10.364
REMARK INTRA:                  -0.209
REMARK UNBOUND:                 0.552
REMARK  Name = PFOA_perfluorooctanoic_acid_CID1036_multiconf
REMARK  7 active torsions:
REMARK  status: ('A' for Active; 'I' for Inactive)
REMARK    1  A    between atoms: C_1  and  C_4
REMARK    2  A    between atoms: C_4  and  C_5
REMARK    3  A    between atoms: C_5  and  C_6
REMARK    4  A    between atoms: C_6  and  C_7
REMARK    5  A    between atoms: C_7  and  C_8
REMARK    6  A    between atoms: C_8  and  C_9
REMARK    7  A    between atoms: C_9  and  C_10
REMARK                            x       y       z     vdW  Elec       q    Type
REMARK                         _______ _______ _______ _____ _____    ______ ____
ROOT
ATOM      1  C   UNL     1     -11.090  -6.074  -6.251  0.00  0.00    +0.384 C 
ATOM      2  F   UNL     1     -12.270  -6.773  -6.275  0.00  0.00    -0.192 F 
ATOM      3  F   UNL     1     -11.254  -5.089  -7.191  0.00  0.00    -0.192 F 
ENDROOT
BRANCH   1   4
ATOM      4  C   UNL     1      -9.973  -6.997  -6.724  0.00  0.00    +0.384 C 
ATOM      5  F   UNL     1      -9.665  -6.666  -8.014  0.00  0.00    -0.192 F 
ATOM      6  F   UNL     1      -8.840  -6.746  -6.017  0.00  0.00    -0.192 F 
BRANCH   4   7
ATOM      7  C   UNL     1     -10.319  -8.472  -6.654  0.00  0.00    +0.389 C 
ATOM      8  F   UNL     1     -11.184  -8.685  -5.620  0.00  0.00    -0.192 F 
ATOM      9  F   UNL     1      -9.202  -9.184  -6.336  0.00  0.00    -0.192 F 
BRANCH   7  10
ATOM     10  C   UNL     1     -10.937  -9.000  -7.938  0.00  0.00    +0.414 C 
ATOM     11  F   UNL     1      -9.950  -9.371  -8.809  0.00  0.00    -0.186 F 
ATOM     12  F   UNL     1     -11.594  -7.976  -8.570  0.00  0.00    -0.186 F 
BRANCH  10  13
ATOM     13  C   UNL     1     -11.883 -10.153  -7.644  0.00  0.00    +0.430 C 
ATOM     14  O   UNL     1     -11.567 -11.281  -7.295  0.00  0.00    -0.239 OA
ATOM     15  O   UNL     1     -13.190  -9.845  -7.780  0.00  0.00    -0.239 OA
ENDBRANCH  10  13
ENDBRANCH   7  10
ENDBRANCH   4   7
ENDBRANCH   1   4
BRANCH   1  16
ATOM     16  C   UNL     1     -10.960  -5.414  -4.884  0.00  0.00    +0.387 C 
ATOM     17  F   UNL     1      -9.950  -4.506  -4.903  0.00  0.00    -0.192 F 
ATOM     18  F   UNL     1     -10.557  -6.371  -3.994  0.00  0.00    -0.192 F 
BRANCH  16  19
ATOM     19  C   UNL     1     -12.237  -4.779  -4.387  0.00  0.00    +0.409 C 
ATOM     20  F   UNL     1     -12.933  -4.250  -5.432  0.00  0.00    -0.189 F 
ATOM     21  F   UNL     1     -13.055  -5.720  -3.839  0.00  0.00    -0.189 F 
BRANCH  19  22
ATOM     22  C   UNL     1     -11.921  -3.695  -3.374  0.00  0.00    +0.460 C 
ATOM     23  F   UNL     1     -13.031  -3.345  -2.675  0.00  0.00    -0.165 F 
ATOM     24  F   UNL     1     -11.459  -2.568  -3.961  0.00  0.00    -0.165 F 
ATOM     25  F   UNL     1     -10.998  -4.085  -2.467  0.00  0.00    -0.165 F 
ENDBRANCH  19  22
ENDBRANCH  16  19
ENDBRANCH   1  16
TORSDOF 7
ENDMDL
MODEL 6
REMARK VINA RESULT:    -7.863     12.228     13.357
REMARK INTER + INTRA:         -10.529
REMARK INTER:                 -10.191
REMARK INTRA:                  -0.338
REMARK UNBOUND:                 0.552
REMARK  Name = PFOA_perfluorooctanoic_acid_CID1036_multiconf
REMARK  7 active torsions:
REMARK  status: ('A' for Active; 'I' for Inactive)
REMARK    1  A    between atoms: C_1  and  C_4
REMARK    2  A    between atoms: C_4  and  C_5
REMARK    3  A    between atoms: C_5  and  C_6
REMARK    4  A    between atoms: C_6  and  C_7
REMARK    5  A    between atoms: C_7  and  C_8
REMARK    6  A    between atoms: C_8  and  C_9
REMARK    7  A    between atoms: C_9  and  C_10
REMARK                            x       y       z     vdW  Elec       q    Type
REMARK                         _______ _______ _______ _____ _____    ______ ____
ROOT
ATOM      1  C   UNL     1     -10.762  -6.287  -5.378  0.00  0.00    +0.384 C 
ATOM      2  F   UNL     1      -9.422  -6.284  -5.090  0.00  0.00    -0.192 F 
ATOM      3  F   UNL     1     -11.330  -7.023  -4.369  0.00  0.00    -0.192 F 
ENDROOT
BRANCH   1   4
ATOM      4  C   UNL     1     -10.972  -7.040  -6.687  0.00  0.00    +0.384 C 
ATOM      5  F   UNL     1     -11.984  -6.428  -7.372  0.00  0.00    -0.192 F 
ATOM      6  F   UNL     1      -9.876  -6.898  -7.479  0.00  0.00    -0.192 F 
BRANCH   4   7
ATOM      7  C   UNL     1     -11.302  -8.509  -6.509  0.00  0.00    +0.389 C 
ATOM      8  F   UNL     1     -12.546  -8.630  -5.960  0.00  0.00    -0.192 F 
ATOM      9  F   UNL     1     -10.454  -9.056  -5.594  0.00  0.00    -0.192 F 
BRANCH   7  10
ATOM     10  C   UNL     1     -11.254  -9.292  -7.811  0.00  0.00    +0.414 C 
ATOM     11  F   UNL     1      -9.955  -9.568  -8.138  0.00  0.00    -0.186 F 
ATOM     12  F   UNL     1     -11.707  -8.492  -8.829  0.00  0.00    -0.186 F 
BRANCH  10  13
ATOM     13  C   UNL     1     -12.085 -10.560  -7.707  0.00  0.00    +0.430 C 
ATOM     14  O   UNL     1     -13.236 -10.708  -8.090  0.00  0.00    -0.239 OA
ATOM     15  O   UNL     1     -11.437 -11.602  -7.143  0.00  0.00    -0.239 OA
ENDBRANCH  10  13
ENDBRANCH   7  10
ENDBRANCH   4   7
ENDBRANCH   1   4
BRANCH   1  16
ATOM     16  C   UNL     1     -11.272  -4.856  -5.270  0.00  0.00    +0.387 C 
ATOM     17  F   UNL     1     -12.625  -4.854  -5.149  0.00  0.00    -0.192 F 
ATOM     18  F   UNL     1     -11.025  -4.234  -6.463  0.00  0.00    -0.192 F 
BRANCH  16  19
ATOM     19  C   UNL     1     -10.637  -4.061  -4.154  0.00  0.00    +0.409 C 
ATOM     20  F   UNL     1     -10.582  -4.813  -3.019  0.00  0.00    -0.189 F 
ATOM     21  F   UNL     1      -9.344  -3.761  -4.460  0.00  0.00    -0.189 F 
BRANCH  19  22
ATOM     22  C   UNL     1     -11.430  -2.794  -3.899  0.00  0.00    +0.460 C 
ATOM     23  F   UNL     1     -10.650  -1.838  -3.333  0.00  0.00    -0.165 F 
ATOM     24  F   UNL     1     -12.465  -3.003  -3.052  0.00  0.00    -0.165 F 
ATOM     25  F   UNL     1     -11.938  -2.261  -5.032  0.00  0.00    -0.165 F 
ENDBRANCH  19  22
ENDBRANCH  16  19
ENDBRANCH   1  16
TORSDOF 7
ENDMDL
MODEL 7
REMARK VINA RESULT:    -7.842     12.842     14.636
REMARK INTER + INTRA:         -10.498
REMARK INTER:                 -10.386
REMARK INTRA:                  -0.113
REMARK UNBOUND:                 0.552
REMARK  Name = PFOA_perfluorooctanoic_acid_CID1036_multiconf
REMARK  7 active torsions:
REMARK  status: ('A' for Active; 'I' for Inactive)
REMARK    1  A    between atoms: C_1  and  C_4
REMARK    2  A    between atoms: C_4  and  C_5
REMARK    3  A    between atoms: C_5  and  C_6
REMARK    4  A    between atoms: C_6  and  C_7
REMARK    5  A    between atoms: C_7  and  C_8
REMARK    6  A    between atoms: C_8  and  C_9
REMARK    7  A    between atoms: C_9  and  C_10
REMARK                            x       y       z     vdW  Elec       q    Type
REMARK                         _______ _______ _______ _____ _____    ______ ____
ROOT
ATOM      1  C   UNL     1     -10.502  -7.436  -5.642  0.00  0.00    +0.384 C 
ATOM      2  F   UNL     1     -10.038  -8.476  -4.879  0.00  0.00    -0.192 F 
ATOM      3  F   UNL     1      -9.372  -6.861  -6.164  0.00  0.00    -0.192 F 
ENDROOT
BRANCH   1   4
ATOM      4  C   UNL     1     -11.167  -6.420  -4.720  0.00  0.00    +0.384 C 
ATOM      5  F   UNL     1     -12.511  -6.665  -4.718  0.00  0.00    -0.192 F 
ATOM      6  F   UNL     1     -10.769  -6.635  -3.438  0.00  0.00    -0.192 F 
BRANCH   4   7
ATOM      7  C   UNL     1     -10.920  -4.977  -5.111  0.00  0.00    +0.389 C 
ATOM      8  F   UNL     1     -10.919  -4.870  -6.472  0.00  0.00    -0.192 F 
ATOM      9  F   UNL     1      -9.666  -4.612  -4.724  0.00  0.00    -0.192 F 
BRANCH   7  10
ATOM     10  C   UNL     1     -11.952  -4.020  -4.537  0.00  0.00    +0.414 C 
ATOM     11  F   UNL     1     -12.307  -4.422  -3.279  0.00  0.00    -0.186 F 
ATOM     12  F   UNL     1     -13.105  -4.115  -5.272  0.00  0.00    -0.186 F 
BRANCH  10  13
ATOM     13  C   UNL     1     -11.422  -2.595  -4.538  0.00  0.00    +0.430 C 
ATOM     14  O   UNL     1     -10.878  -2.021  -3.606  0.00  0.00    -0.239 OA
ATOM     15  O   UNL     1     -11.577  -1.948  -5.713  0.00  0.00    -0.239 OA
ENDBRANCH  10  13
ENDBRANCH   7  10
ENDBRANCH   4   7
ENDBRANCH   1   4
BRANCH   1  16
ATOM     16  C   UNL     1     -11.315  -8.020  -6.791  0.00  0.00    +0.387 C 
ATOM     17  F   UNL     1     -11.936  -7.022  -7.473  0.00  0.00    -0.192 F 
ATOM     18  F   UNL     1     -12.330  -8.761  -6.250  0.00  0.00    -0.192 F 
BRANCH  16  19
ATOM     19  C   UNL     1     -10.512  -8.888  -7.731  0.00  0.00    +0.409 C 
ATOM     20  F   UNL     1      -9.318  -9.212  -7.160  0.00  0.00    -0.189 F 
ATOM     21  F   UNL     1     -11.150 -10.071  -7.949  0.00  0.00    -0.189 F 
BRANCH  19  22
ATOM     22  C   UNL     1     -10.279  -8.160  -9.042  0.00  0.00    +0.460 C 
ATOM     23  F   UNL     1      -9.612  -8.949  -9.923  0.00  0.00    -0.165 F 
ATOM     24  F   UNL     1      -9.534  -7.043  -8.879  0.00  0.00    -0.165 F 
ATOM     25  F   UNL     1     -11.431  -7.792  -9.644  0.00  0.00    -0.165 F 
ENDBRANCH  19  22
ENDBRANCH  16  19
ENDBRANCH   1  16
TORSDOF 7
ENDMDL
MODEL 8
REMARK VINA RESULT:    -7.705     12.432     13.575
REMARK INTER + INTRA:         -10.306
REMARK INTER:                 -10.362
REMARK INTRA:                   0.057
REMARK UNBOUND:                 0.552
REMARK  Name = PFOA_perfluorooctanoic_acid_CID1036_multiconf
REMARK  7 active torsions:
REMARK  status: ('A' for Active; 'I' for Inactive)
REMARK    1  A    between atoms: C_1  and  C_4
REMARK    2  A    between atoms: C_4  and  C_5
REMARK    3  A    between atoms: C_5  and  C_6
REMARK    4  A    between atoms: C_6  and  C_7
REMARK    5  A    between atoms: C_7  and  C_8
REMARK    6  A    between atoms: C_8  and  C_9
REMARK    7  A    between atoms: C_9  and  C_10
REMARK                            x       y       z     vdW  Elec       q    Type
REMARK                         _______ _______ _______ _____ _____    ______ ____
ROOT
ATOM      1  C   UNL     1     -11.128  -6.578  -5.072  0.00  0.00    +0.384 C 
ATOM      2  F   UNL     1     -10.653  -7.755  -4.552  0.00  0.00    -0.192 F 
ATOM      3  F   UNL     1     -12.425  -6.506  -4.633  0.00  0.00    -0.192 F 
ENDROOT
BRANCH   1   4
ATOM      4  C   UNL     1     -11.150  -6.698  -6.592  0.00  0.00    +0.384 C 
ATOM      5  F   UNL     1     -12.025  -5.767  -7.078  0.00  0.00    -0.192 F 
ATOM      6  F   UNL     1      -9.940  -6.341  -7.098  0.00  0.00    -0.192 F 
BRANCH   4   7
ATOM      7  C   UNL     1     -11.545  -8.071  -7.098  0.00  0.00    +0.389 C 
ATOM      8  F   UNL     1     -12.360  -7.936  -8.186  0.00  0.00    -0.192 F 
ATOM      9  F   UNL     1     -12.307  -8.698  -6.159  0.00  0.00    -0.192 F 
BRANCH   7  10
ATOM     10  C   UNL     1     -10.351  -8.933  -7.474  0.00  0.00    +0.414 C 
ATOM     11  F   UNL     1      -9.216  -8.424  -6.908  0.00  0.00    -0.186 F 
ATOM     12  F   UNL     1     -10.141  -8.837  -8.826  0.00  0.00    -0.186 F 
BRANCH  10  13
ATOM     13  C   UNL     1     -10.581 -10.378  -7.061  0.00  0.00    +0.430 C 
ATOM     14  O   UNL     1     -11.510 -11.093  -7.407  0.00  0.00    -0.239 OA
ATOM     15  O   UNL     1      -9.628 -10.879  -6.246  0.00  0.00    -0.239 OA
ENDBRANCH  10  13
ENDBRANCH   7  10
ENDBRANCH   4   7
ENDBRANCH   1   4
BRANCH   1  16
ATOM     16  C   UNL     1     -10.344  -5.433  -4.443  0.00  0.00    +0.387 C 
ATOM     17  F   UNL     1      -9.067  -5.436  -4.905  0.00  0.00    -0.192 F 
ATOM     18  F   UNL     1     -10.234  -5.690  -3.103  0.00  0.00    -0.192 F 
BRANCH  16  19
ATOM     19  C   UNL     1     -10.979  -4.077  -4.639  0.00  0.00    +0.409 C 
ATOM     20  F   UNL     1     -10.666  -3.590  -5.872  0.00  0.00    -0.189 F 
ATOM     21  F   UNL     1     -12.337  -4.179  -4.616  0.00  0.00    -0.189 F 
BRANCH  19  22
ATOM     22  C   UNL     1     -10.499  -3.117  -3.566  0.00  0.00    +0.460 C 
ATOM     23  F   UNL     1     -10.831  -1.838  -3.876  0.00  0.00    -0.165 F 
ATOM     24  F   UNL     1      -9.155  -3.147  -3.420  0.00  0.00    -0.165 F 
ATOM     25  F   UNL     1     -11.042  -3.377  -2.356  0.00  0.00    -0.165 F 
ENDBRANCH  19  22
ENDBRANCH  16  19
ENDBRANCH   1  16
TORSDOF 7
ENDMDL
MODEL 9
REMARK VINA RESULT:    -7.685      2.828      6.378
REMARK INTER + INTRA:         -10.277
REMARK INTER:                 -10.403
REMARK INTRA:                   0.126
REMARK UNBOUND:                 0.552
REMARK  Name = PFOA_perfluorooctanoic_acid_CID1036_multiconf
REMARK  7 active torsions:
REMARK  status: ('A' for Active; 'I' for Inactive)
REMARK    1  A    between atoms: C_1  and  C_4
REMARK    2  A    between atoms: C_4  and  C_5
REMARK    3  A    between atoms: C_5  and  C_6
REMARK    4  A    between atoms: C_6  and  C_7
REMARK    5  A    between atoms: C_7  and  C_8
REMARK    6  A    between atoms: C_8  and  C_9
REMARK    7  A    between atoms: C_9  and  C_10
REMARK                            x       y       z     vdW  Elec       q    Type
REMARK                         _______ _______ _______ _____ _____    ______ ____
ROOT
ATOM      1  C   UNL     1     -20.753 -16.005  -3.722  0.00  0.00    +0.384 C 
ATOM      2  F   UNL     1     -21.575 -17.032  -3.337  0.00  0.00    -0.192 F 
ATOM      3  F   UNL     1     -19.486 -16.463  -3.465  0.00  0.00    -0.192 F 
ENDROOT
BRANCH   1   4
ATOM      4  C   UNL     1     -21.016 -14.809  -2.813  0.00  0.00    +0.384 C 
ATOM      5  F   UNL     1     -20.438 -13.709  -3.379  0.00  0.00    -0.192 F 
ATOM      6  F   UNL     1     -22.347 -14.535  -2.790  0.00  0.00    -0.192 F 
BRANCH   4   7
ATOM      7  C   UNL     1     -20.492 -14.981  -1.400  0.00  0.00    +0.389 C 
ATOM      8  F   UNL     1     -19.697 -16.089  -1.344  0.00  0.00    -0.192 F 
ATOM      9  F   UNL     1     -21.532 -15.245  -0.561  0.00  0.00    -0.192 F 
BRANCH   7  10
ATOM     10  C   UNL     1     -19.706 -13.777  -0.907  0.00  0.00    +0.414 C 
ATOM     11  F   UNL     1     -20.366 -12.626  -1.236  0.00  0.00    -0.186 F 
ATOM     12  F   UNL     1     -18.520 -13.708  -1.593  0.00  0.00    -0.186 F 
BRANCH  10  13
ATOM     13  C   UNL     1     -19.463 -13.872   0.591  0.00  0.00    +0.430 C 
ATOM     14  O   UNL     1     -18.630 -14.572   1.148  0.00  0.00    -0.239 OA
ATOM     15  O   UNL     1     -20.258 -13.071   1.333  0.00  0.00    -0.239 OA
ENDBRANCH  10  13
ENDBRANCH   7  10
ENDBRANCH   4   7
ENDBRANCH   1   4
BRANCH   1  16
ATOM     16  C   UNL     1     -20.899 -15.821  -5.227  0.00  0.00    +0.387 C 
ATOM     17  F   UNL     1     -19.826 -15.150  -5.719  0.00  0.00    -0.192 F 
ATOM     18  F   UNL     1     -21.964 -14.991  -5.445  0.00  0.00    -0.192 F 
BRANCH  16  19
ATOM     19  C   UNL     1     -21.112 -17.111  -5.983  0.00  0.00    +0.409 C 
ATOM     20  F   UNL     1     -20.092 -17.977  -5.726  0.00  0.00    -0.189 F 
ATOM     21  F   UNL     1     -22.243 -17.736  -5.551  0.00  0.00    -0.189 F 
BRANCH  19  22
ATOM     22  C   UNL     1     -21.194 -16.835  -7.473  0.00  0.00    +0.460 C 
ATOM     23  F   UNL     1     -20.142 -16.083  -7.886  0.00  0.00    -0.165 F 
ATOM     24  F   UNL     1     -22.314 -16.152  -7.803  0.00  0.00    -0.165 F 
ATOM     25  F   UNL     1     -21.178 -17.966  -8.213  0.00  0.00    -0.165 F 
ENDBRANCH  19  22
ENDBRANCH  16  19
ENDBRANCH   1  16
TORSDOF 7
ENDMDL
MODEL 10
REMARK VINA RESULT:    -7.599     12.620     14.409
REMARK INTER + INTRA:         -10.156
REMARK INTER:                 -10.161
REMARK INTRA:                   0.005
REMARK UNBOUND:                 0.552
REMARK  Name = PFOA_perfluorooctanoic_acid_CID1036_multiconf
REMARK  7 active torsions:
REMARK  status: ('A' for Active; 'I' for Inactive)
REMARK    1  A    between atoms: C_1  and  C_4
REMARK    2  A    between atoms: C_4  and  C_5
REMARK    3  A    between atoms: C_5  and  C_6
REMARK    4  A    between atoms: C_6  and  C_7
REMARK    5  A    between atoms: C_7  and  C_8
REMARK    6  A    between atoms: C_8  and  C_9
REMARK    7  A    between atoms: C_9  and  C_10
REMARK                            x       y       z     vdW  Elec       q    Type
REMARK                         _______ _______ _______ _____ _____    ______ ____
ROOT
ATOM      1  C   UNL     1     -10.066  -6.724  -5.548  0.00  0.00    +0.384 C 
ATOM      2  F   UNL     1     -10.312  -7.547  -4.479  0.00  0.00    -0.192 F 
ATOM      3  F   UNL     1      -8.909  -6.066  -5.216  0.00  0.00    -0.192 F 
ENDROOT
BRANCH   1   4
ATOM      4  C   UNL     1     -11.188  -5.694  -5.631  0.00  0.00    +0.384 C 
ATOM      5  F   UNL     1     -10.663  -4.533  -6.125  0.00  0.00    -0.192 F 
ATOM      6  F   UNL     1     -12.103  -6.087  -6.556  0.00  0.00    -0.192 F 
BRANCH   4   7
ATOM      7  C   UNL     1     -11.868  -5.413  -4.306  0.00  0.00    +0.389 C 
ATOM      8  F   UNL     1     -10.933  -5.395  -3.312  0.00  0.00    -0.192 F 
ATOM      9  F   UNL     1     -12.698  -6.448  -3.996  0.00  0.00    -0.192 F 
BRANCH   7  10
ATOM     10  C   UNL     1     -12.632  -4.099  -4.296  0.00  0.00    +0.414 C 
ATOM     11  F   UNL     1     -13.832  -4.266  -3.662  0.00  0.00    -0.186 F 
ATOM     12  F   UNL     1     -12.961  -3.766  -5.585  0.00  0.00    -0.186 F 
BRANCH  10  13
ATOM     13  C   UNL     1     -11.805  -3.002  -3.645  0.00  0.00    +0.430 C 
ATOM     14  O   UNL     1     -11.153  -2.145  -4.223  0.00  0.00    -0.239 OA
ATOM     15  O   UNL     1     -11.841  -3.008  -2.296  0.00  0.00    -0.239 OA
ENDBRANCH  10  13
ENDBRANCH   7  10
ENDBRANCH   4   7
ENDBRANCH   1   4
BRANCH   1  16
ATOM     16  C   UNL     1      -9.787  -7.598  -6.764  0.00  0.00    +0.387 C 
ATOM     17  F   UNL     1      -8.459  -7.870  -6.845  0.00  0.00    -0.192 F 
ATOM     18  F   UNL     1     -10.064  -6.859  -7.881  0.00  0.00    -0.192 F 
BRANCH  16  19
ATOM     19  C   UNL     1     -10.595  -8.874  -6.799  0.00  0.00    +0.409 C 
ATOM     20  F   UNL     1      -9.866  -9.901  -6.279  0.00  0.00    -0.189 F 
ATOM     21  F   UNL     1     -11.695  -8.763  -6.004  0.00  0.00    -0.189 F 
BRANCH  19  22
ATOM     22  C   UNL     1     -11.000  -9.196  -8.225  0.00  0.00    +0.460 C 
ATOM     23  F   UNL     1      -9.913  -9.248  -9.038  0.00  0.00    -0.165 F 
ATOM     24  F   UNL     1     -11.828  -8.260  -8.743  0.00  0.00    -0.165 F 
ATOM     25  F   UNL     1     -11.622 -10.390  -8.332  0.00  0.00    -0.165 F 
ENDBRANCH  19  22
ENDBRANCH  16  19
ENDBRANCH   1  16
TORSDOF 7
ENDMDL
