MODEL 1
REMARK VINA RESULT:    -7.811      0.000      0.000
REMARK INTER + INTRA:         -10.610
REMARK INTER:                 -11.007
REMARK INTRA:                   0.397
REMARK UNBOUND:                 0.397
REMARK  Name = PFOA_perfluorooctanoic_acid_CID1036_multiconf
REMARK  7 active torsions:
REMARK  status: ('A' for Active; 'I' for Inactive)
REMARK    1  A    between atoms: C_1  and  C_4
REMARK    2  A    between atoms: C_4  and  C_5
REMARK    3  A    between atoms: C_5  and  C_6
REMARK    4  A    between atoms: C_6  and  C_7
REMARK    5  A    between atoms: C_7  and  C_8
REMARK    6  A    between atoms: C_8  and  C_9
REMARK    7  A    between atoms: C_9  and  C_10
REMARK                            x       y       z     vdW  Elec       q    Type
REMARK                         _______ _______ _______ _____ _____    ______ ____
ROOT
ATOM      1  C   UNL     1      51.217 -34.102  19.765  0.00  0.00    +0.384 C 
ATOM      2  F   UNL     1      51.983 -32.973  19.638  0.00  0.00    -0.192 F 
ATOM      3  F   UNL     1      51.740 -34.978  18.848  0.00  0.00    -0.192 F 
ENDROOT
BRANCH   1   4
ATOM      4  C   UNL     1      49.791 -33.768  19.339  0.00  0.00    +0.384 C 
ATOM      5  F   UNL     1      49.040 -33.595  20.467  0.00  0.00    -0.192 F 
ATOM      6  F   UNL     1      49.770 -32.561  18.714  0.00  0.00    -0.192 F 
BRANCH   4   7
ATOM      7  C   UNL     1      49.145 -34.823  18.463  0.00  0.00    +0.389 C 
ATOM      8  F   UNL     1      47.852 -35.010  18.859  0.00  0.00    -0.192 F 
ATOM      9  F   UNL     1      49.759 -36.021  18.670  0.00  0.00    -0.192 F 
BRANCH   7  10
ATOM     10  C   UNL     1      49.167 -34.464  16.986  0.00  0.00    +0.414 C 
ATOM     11  F   UNL     1      50.459 -34.401  16.543  0.00  0.00    -0.186 F 
ATOM     12  F   UNL     1      48.682 -33.191  16.830  0.00  0.00    -0.186 F 
BRANCH  10  13
ATOM     13  C   UNL     1      48.349 -35.460  16.179  0.00  0.00    +0.430 C 
ATOM     14  O   UNL     1      48.001 -36.575  16.540  0.00  0.00    -0.239 OA
ATOM     15  O   UNL     1      47.980 -35.014  14.959  0.00  0.00    -0.239 OA
ENDBRANCH  10  13
ENDBRANCH   7  10
ENDBRANCH   4   7
ENDBRANCH   1   4
BRANCH   1  16
ATOM     16  C   UNL     1      51.446 -34.675  21.158  0.00  0.00    +0.387 C 
ATOM     17  F   UNL     1      50.499 -35.608  21.437  0.00  0.00    -0.192 F 
ATOM     18  F   UNL     1      51.230 -33.672  22.063  0.00  0.00    -0.192 F 
BRANCH  16  19
ATOM     19  C   UNL     1      52.830 -35.243  21.367  0.00  0.00    +0.409 C 
ATOM     20  F   UNL     1      53.222 -35.935  20.260  0.00  0.00    -0.189 F 
ATOM     21  F   UNL     1      53.739 -34.240  21.515  0.00  0.00    -0.189 F 
BRANCH  19  22
ATOM     22  C   UNL     1      52.842 -36.155  22.579  0.00  0.00    +0.460 C 
ATOM     23  F   UNL     1      54.076 -36.192  23.145  0.00  0.00    -0.165 F 
ATOM     24  F   UNL     1      52.521 -37.430  22.261  0.00  0.00    -0.165 F 
ATOM     25  F   UNL     1      51.985 -35.750  23.542  0.00  0.00    -0.165 F 
ENDBRANCH  19  22
ENDBRANCH  16  19
ENDBRANCH   1  16
TORSDOF 7
ENDMDL
MODEL 2
REMARK VINA RESULT:    -7.552      0.802      1.714
REMARK INTER + INTRA:         -10.245
REMARK INTER:                 -10.257
REMARK INTRA:                   0.012
REMARK UNBOUND:                 0.397
REMARK  Name = PFOA_perfluorooctanoic_acid_CID1036_multiconf
REMARK  7 active torsions:
REMARK  status: ('A' for Active; 'I' for Inactive)
REMARK    1  A    between atoms: C_1  and  C_4
REMARK    2  A    between atoms: C_4  and  C_5
REMARK    3  A    between atoms: C_5  and  C_6
REMARK    4  A    between atoms: C_6  and  C_7
REMARK    5  A    between atoms: C_7  and  C_8
REMARK    6  A    between atoms: C_8  and  C_9
REMARK    7  A    between atoms: C_9  and  C_10
REMARK                            x       y       z     vdW  Elec       q    Type
REMARK                         _______ _______ _______ _____ _____    ______ ____
ROOT
ATOM      1  C   UNL     1      50.891 -33.770  20.005  0.00  0.00    +0.384 C 
ATOM      2  F   UNL     1      49.751 -33.057  20.272  0.00  0.00    -0.192 F 
ATOM      3  F   UNL     1      51.852 -32.816  19.790  0.00  0.00    -0.192 F 
ENDROOT
BRANCH   1   4
ATOM      4  C   UNL     1      50.686 -34.536  18.702  0.00  0.00    +0.384 C 
ATOM      5  F   UNL     1      51.712 -34.218  17.857  0.00  0.00    -0.192 F 
ATOM      6  F   UNL     1      50.819 -35.870  18.929  0.00  0.00    -0.192 F 
BRANCH   4   7
ATOM      7  C   UNL     1      49.364 -34.249  18.018  0.00  0.00    +0.389 C 
ATOM      8  F   UNL     1      49.194 -32.899  17.909  0.00  0.00    -0.192 F 
ATOM      9  F   UNL     1      48.342 -34.674  18.812  0.00  0.00    -0.192 F 
BRANCH   7  10
ATOM     10  C   UNL     1      49.260 -34.877  16.638  0.00  0.00    +0.414 C 
ATOM     11  F   UNL     1      50.510 -35.144  16.155  0.00  0.00    -0.186 F 
ATOM     12  F   UNL     1      48.738 -33.955  15.767  0.00  0.00    -0.186 F 
BRANCH  10  13
ATOM     13  C   UNL     1      48.399 -36.130  16.682  0.00  0.00    +0.430 C 
ATOM     14  O   UNL     1      48.676 -37.182  17.240  0.00  0.00    -0.239 OA
ATOM     15  O   UNL     1      47.217 -36.012  16.041  0.00  0.00    -0.239 OA
ENDBRANCH  10  13
ENDBRANCH   7  10
ENDBRANCH   4   7
ENDBRANCH   1   4
BRANCH   1  16
ATOM     16  C   UNL     1      51.264 -34.551  21.259  0.00  0.00    +0.387 C 
ATOM     17  F   UNL     1      50.466 -35.644  21.378  0.00  0.00    -0.192 F 
ATOM     18  F   UNL     1      50.960 -33.773  22.342  0.00  0.00    -0.192 F 
BRANCH  16  19
ATOM     19  C   UNL     1      52.720 -34.946  21.323  0.00  0.00    +0.409 C 
ATOM     20  F   UNL     1      53.135 -35.401  20.108  0.00  0.00    -0.189 F 
ATOM     21  F   UNL     1      53.496 -33.860  21.594  0.00  0.00    -0.189 F 
BRANCH  19  22
ATOM     22  C   UNL     1      52.923 -36.020  22.376  0.00  0.00    +0.460 C 
ATOM     23  F   UNL     1      52.696 -37.255  21.858  0.00  0.00    -0.165 F 
ATOM     24  F   UNL     1      52.077 -35.875  23.421  0.00  0.00    -0.165 F 
ATOM     25  F   UNL     1      54.180 -36.031  22.872  0.00  0.00    -0.165 F 
ENDBRANCH  19  22
ENDBRANCH  16  19
ENDBRANCH   1  16
TORSDOF 7
ENDMDL
MODEL 3
REMARK VINA RESULT:    -7.522      1.502      2.699
REMARK INTER + INTRA:         -10.203
REMARK INTER:                 -10.992
REMARK INTRA:                   0.788
REMARK UNBOUND:                 0.397
REMARK  Name = PFOA_perfluorooctanoic_acid_CID1036_multiconf
REMARK  7 active torsions:
REMARK  status: ('A' for Active; 'I' for Inactive)
REMARK    1  A    between atoms: C_1  and  C_4
REMARK    2  A    between atoms: C_4  and  C_5
REMARK    3  A    between atoms: C_5  and  C_6
REMARK    4  A    between atoms: C_6  and  C_7
REMARK    5  A    between atoms: C_7  and  C_8
REMARK    6  A    between atoms: C_8  and  C_9
REMARK    7  A    between atoms: C_9  and  C_10
REMARK                            x       y       z     vdW  Elec       q    Type
REMARK                         _______ _______ _______ _____ _____    ______ ____
ROOT
ATOM      1  C   UNL     1      51.817 -34.494  20.845  0.00  0.00    +0.384 C 
ATOM      2  F   UNL     1      50.915 -35.338  21.440  0.00  0.00    -0.192 F 
ATOM      3  F   UNL     1      51.741 -33.337  21.577  0.00  0.00    -0.192 F 
ENDROOT
BRANCH   1   4
ATOM      4  C   UNL     1      51.333 -34.191  19.431  0.00  0.00    +0.384 C 
ATOM      5  F   UNL     1      51.705 -32.914  19.120  0.00  0.00    -0.192 F 
ATOM      6  F   UNL     1      51.996 -34.977  18.541  0.00  0.00    -0.192 F 
BRANCH   4   7
ATOM      7  C   UNL     1      49.836 -34.338  19.246  0.00  0.00    +0.389 C 
ATOM      8  F   UNL     1      49.205 -33.250  19.777  0.00  0.00    -0.192 F 
ATOM      9  F   UNL     1      49.392 -35.399  19.975  0.00  0.00    -0.192 F 
BRANCH   7  10
ATOM     10  C   UNL     1      49.429 -34.489  17.789  0.00  0.00    +0.414 C 
ATOM     11  F   UNL     1      50.537 -34.435  16.990  0.00  0.00    -0.186 F 
ATOM     12  F   UNL     1      48.680 -33.400  17.421  0.00  0.00    -0.186 F 
BRANCH  10  13
ATOM     13  C   UNL     1      48.651 -35.778  17.579  0.00  0.00    +0.430 C 
ATOM     14  O   UNL     1      49.092 -36.827  17.133  0.00  0.00    -0.239 OA
ATOM     15  O   UNL     1      47.356 -35.711  17.954  0.00  0.00    -0.239 OA
ENDBRANCH  10  13
ENDBRANCH   7  10
ENDBRANCH   4   7
ENDBRANCH   1   4
BRANCH   1  16
ATOM     16  C   UNL     1      53.209 -35.085  21.028  0.00  0.00    +0.387 C 
ATOM     17  F   UNL     1      53.326 -36.230  20.305  0.00  0.00    -0.192 F 
ATOM     18  F   UNL     1      53.328 -35.479  22.333  0.00  0.00    -0.192 F 
BRANCH  16  19
ATOM     19  C   UNL     1      54.330 -34.129  20.694  0.00  0.00    +0.409 C 
ATOM     20  F   UNL     1      54.084 -33.522  19.499  0.00  0.00    -0.189 F 
ATOM     21  F   UNL     1      54.388 -33.125  21.612  0.00  0.00    -0.189 F 
BRANCH  19  22
ATOM     22  C   UNL     1      55.650 -34.873  20.636  0.00  0.00    +0.460 C 
ATOM     23  F   UNL     1      55.540 -35.999  19.885  0.00  0.00    -0.165 F 
ATOM     24  F   UNL     1      56.070 -35.262  21.861  0.00  0.00    -0.165 F 
ATOM     25  F   UNL     1      56.639 -34.134  20.085  0.00  0.00    -0.165 F 
ENDBRANCH  19  22
ENDBRANCH  16  19
ENDBRANCH   1  16
TORSDOF 7
ENDMDL
MODEL 4
REMARK VINA RESULT:    -7.482      1.440      2.755
REMARK INTER + INTRA:         -10.147
REMARK INTER:                  -9.929
REMARK INTRA:                  -0.218
REMARK UNBOUND:                 0.397
REMARK  Name = PFOA_perfluorooctanoic_acid_CID1036_multiconf
REMARK  7 active torsions:
REMARK  status: ('A' for Active; 'I' for Inactive)
REMARK    1  A    between atoms: C_1  and  C_4
REMARK    2  A    between atoms: C_4  and  C_5
REMARK    3  A    between atoms: C_5  and  C_6
REMARK    4  A    between atoms: C_6  and  C_7
REMARK    5  A    between atoms: C_7  and  C_8
REMARK    6  A    between atoms: C_8  and  C_9
REMARK    7  A    between atoms: C_9  and  C_10
REMARK                            x       y       z     vdW  Elec       q    Type
REMARK                         _______ _______ _______ _____ _____    ______ ____
ROOT
ATOM      1  C   UNL     1      51.711 -34.317  20.527  0.00  0.00    +0.384 C 
ATOM      2  F   UNL     1      51.235 -35.553  20.883  0.00  0.00    -0.192 F 
ATOM      3  F   UNL     1      51.689 -33.591  21.690  0.00  0.00    -0.192 F 
ENDROOT
BRANCH   1   4
ATOM      4  C   UNL     1      50.722 -33.682  19.555  0.00  0.00    +0.384 C 
ATOM      5  F   UNL     1      49.571 -33.409  20.238  0.00  0.00    -0.192 F 
ATOM      6  F   UNL     1      51.189 -32.469  19.154  0.00  0.00    -0.192 F 
BRANCH   4   7
ATOM      7  C   UNL     1      50.400 -34.544  18.350  0.00  0.00    +0.389 C 
ATOM      8  F   UNL     1      50.391 -35.857  18.723  0.00  0.00    -0.192 F 
ATOM      9  F   UNL     1      51.404 -34.439  17.437  0.00  0.00    -0.192 F 
BRANCH   7  10
ATOM     10  C   UNL     1      49.064 -34.198  17.712  0.00  0.00    +0.414 C 
ATOM     11  F   UNL     1      48.928 -32.840  17.629  0.00  0.00    -0.186 F 
ATOM     12  F   UNL     1      48.054 -34.600  18.548  0.00  0.00    -0.186 F 
BRANCH  10  13
ATOM     13  C   UNL     1      48.935 -34.857  16.348  0.00  0.00    +0.430 C 
ATOM     14  O   UNL     1      49.214 -34.353  15.269  0.00  0.00    -0.239 OA
ATOM     15  O   UNL     1      48.479 -36.127  16.387  0.00  0.00    -0.239 OA
ENDBRANCH  10  13
ENDBRANCH   7  10
ENDBRANCH   4   7
ENDBRANCH   1   4
BRANCH   1  16
ATOM     16  C   UNL     1      53.161 -34.477  20.091  0.00  0.00    +0.387 C 
ATOM     17  F   UNL     1      53.488 -33.504  19.201  0.00  0.00    -0.192 F 
ATOM     18  F   UNL     1      53.259 -35.646  19.386  0.00  0.00    -0.192 F 
BRANCH  16  19
ATOM     19  C   UNL     1      54.146 -34.504  21.236  0.00  0.00    +0.409 C 
ATOM     20  F   UNL     1      54.240 -33.267  21.799  0.00  0.00    -0.189 F 
ATOM     21  F   UNL     1      53.702 -35.327  22.227  0.00  0.00    -0.189 F 
BRANCH  19  22
ATOM     22  C   UNL     1      55.508 -34.954  20.742  0.00  0.00    +0.460 C 
ATOM     23  F   UNL     1      56.303 -35.322  21.780  0.00  0.00    -0.165 F 
ATOM     24  F   UNL     1      56.160 -33.971  20.081  0.00  0.00    -0.165 F 
ATOM     25  F   UNL     1      55.435 -36.019  19.912  0.00  0.00    -0.165 F 
ENDBRANCH  19  22
ENDBRANCH  16  19
ENDBRANCH   1  16
TORSDOF 7
ENDMDL
MODEL 5
REMARK VINA RESULT:    -7.420      2.710      6.082
REMARK INTER + INTRA:         -10.059
REMARK INTER:                 -10.307
REMARK INTRA:                   0.248
REMARK UNBOUND:                 0.397
REMARK  Name = PFOA_perfluorooctanoic_acid_CID1036_multiconf
REMARK  7 active torsions:
REMARK  status: ('A' for Active; 'I' for Inactive)
REMARK    1  A    between atoms: C_1  and  C_4
REMARK    2  A    between atoms: C_4  and  C_5
REMARK    3  A    between atoms: C_5  and  C_6
REMARK    4  A    between atoms: C_6  and  C_7
REMARK    5  A    between atoms: C_7  and  C_8
REMARK    6  A    between atoms: C_8  and  C_9
REMARK    7  A    between atoms: C_9  and  C_10
REMARK                            x       y       z     vdW  Elec       q    Type
REMARK                         _______ _______ _______ _____ _____    ______ ____
ROOT
ATOM      1  C   UNL     1      50.530 -34.616  18.401  0.00  0.00    +0.384 C 
ATOM      2  F   UNL     1      50.483 -35.925  18.806  0.00  0.00    -0.192 F 
ATOM      3  F   UNL     1      51.480 -34.595  17.413  0.00  0.00    -0.192 F 
ENDROOT
BRANCH   1   4
ATOM      4  C   UNL     1      51.038 -33.770  19.563  0.00  0.00    +0.384 C 
ATOM      5  F   UNL     1      51.483 -32.580  19.060  0.00  0.00    -0.192 F 
ATOM      6  F   UNL     1      50.001 -33.440  20.379  0.00  0.00    -0.192 F 
BRANCH   4   7
ATOM      7  C   UNL     1      52.147 -34.423  20.365  0.00  0.00    +0.389 C 
ATOM      8  F   UNL     1      53.160 -33.527  20.548  0.00  0.00    -0.192 F 
ATOM      9  F   UNL     1      52.694 -35.436  19.637  0.00  0.00    -0.192 F 
BRANCH   7  10
ATOM     10  C   UNL     1      51.681 -34.934  21.718  0.00  0.00    +0.414 C 
ATOM     11  F   UNL     1      50.454 -35.524  21.594  0.00  0.00    -0.186 F 
ATOM     12  F   UNL     1      51.471 -33.863  22.550  0.00  0.00    -0.186 F 
BRANCH  10  13
ATOM     13  C   UNL     1      52.703 -35.890  22.312  0.00  0.00    +0.430 C 
ATOM     14  O   UNL     1      53.910 -35.711  22.383  0.00  0.00    -0.239 OA
ATOM     15  O   UNL     1      52.173 -37.027  22.812  0.00  0.00    -0.239 OA
ENDBRANCH  10  13
ENDBRANCH   7  10
ENDBRANCH   4   7
ENDBRANCH   1   4
BRANCH   1  16
ATOM     16  C   UNL     1      49.185 -34.265  17.778  0.00  0.00    +0.387 C 
ATOM     17  F   UNL     1      49.121 -32.931  17.533  0.00  0.00    -0.192 F 
ATOM     18  F   UNL     1      48.216 -34.497  18.716  0.00  0.00    -0.192 F 
BRANCH  16  19
ATOM     19  C   UNL     1      48.865 -35.052  16.529  0.00  0.00    +0.409 C 
ATOM     20  F   UNL     1      49.683 -36.138  16.440  0.00  0.00    -0.189 F 
ATOM     21  F   UNL     1      47.598 -35.548  16.590  0.00  0.00    -0.189 F 
BRANCH  19  22
ATOM     22  C   UNL     1      49.033 -34.174  15.303  0.00  0.00    +0.460 C 
ATOM     23  F   UNL     1      48.487 -32.947  15.506  0.00  0.00    -0.165 F 
ATOM     24  F   UNL     1      48.423 -34.696  14.215  0.00  0.00    -0.165 F 
ATOM     25  F   UNL     1      50.330 -33.973  14.981  0.00  0.00    -0.165 F 
ENDBRANCH  19  22
ENDBRANCH  16  19
ENDBRANCH   1  16
TORSDOF 7
ENDMDL
MODEL 6
REMARK VINA RESULT:    -7.405      2.828      5.845
REMARK INTER + INTRA:         -10.039
REMARK INTER:                 -10.821
REMARK INTRA:                   0.783
REMARK UNBOUND:                 0.397
REMARK  Name = PFOA_perfluorooctanoic_acid_CID1036_multiconf
REMARK  7 active torsions:
REMARK  status: ('A' for Active; 'I' for Inactive)
REMARK    1  A    between atoms: C_1  and  C_4
REMARK    2  A    between atoms: C_4  and  C_5
REMARK    3  A    between atoms: C_5  and  C_6
REMARK    4  A    between atoms: C_6  and  C_7
REMARK    5  A    between atoms: C_7  and  C_8
REMARK    6  A    between atoms: C_8  and  C_9
REMARK    7  A    between atoms: C_9  and  C_10
REMARK                            x       y       z     vdW  Elec       q    Type
REMARK                         _______ _______ _______ _____ _____    ______ ____
ROOT
ATOM      1  C   UNL     1      51.153 -33.864  19.350  0.00  0.00    +0.384 C 
ATOM      2  F   UNL     1      51.777 -34.558  18.346  0.00  0.00    -0.192 F 
ATOM      3  F   UNL     1      51.725 -32.618  19.316  0.00  0.00    -0.192 F 
ENDROOT
BRANCH   1   4
ATOM      4  C   UNL     1      51.515 -34.513  20.682  0.00  0.00    +0.384 C 
ATOM      5  F   UNL     1      51.470 -33.550  21.650  0.00  0.00    -0.192 F 
ATOM      6  F   UNL     1      50.554 -35.409  21.032  0.00  0.00    -0.192 F 
BRANCH   4   7
ATOM      7  C   UNL     1      52.879 -35.176  20.695  0.00  0.00    +0.389 C 
ATOM      8  F   UNL     1      53.033 -35.917  19.560  0.00  0.00    -0.192 F 
ATOM      9  F   UNL     1      52.936 -36.074  21.718  0.00  0.00    -0.192 F 
BRANCH   7  10
ATOM     10  C   UNL     1      54.023 -34.180  20.800  0.00  0.00    +0.414 C 
ATOM     11  F   UNL     1      53.717 -33.219  21.723  0.00  0.00    -0.186 F 
ATOM     12  F   UNL     1      54.133 -33.502  19.613  0.00  0.00    -0.186 F 
BRANCH  10  13
ATOM     13  C   UNL     1      55.323 -34.890  21.144  0.00  0.00    +0.430 C 
ATOM     14  O   UNL     1      55.672 -35.269  22.252  0.00  0.00    -0.239 OA
ATOM     15  O   UNL     1      56.128 -35.116  20.083  0.00  0.00    -0.239 OA
ENDBRANCH  10  13
ENDBRANCH   7  10
ENDBRANCH   4   7
ENDBRANCH   1   4
BRANCH   1  16
ATOM     16  C   UNL     1      49.681 -33.725  18.984  0.00  0.00    +0.387 C 
ATOM     17  F   UNL     1      49.458 -32.513  18.413  0.00  0.00    -0.192 F 
ATOM     18  F   UNL     1      48.961 -33.703  20.147  0.00  0.00    -0.192 F 
BRANCH  16  19
ATOM     19  C   UNL     1      49.162 -34.834  18.100  0.00  0.00    +0.409 C 
ATOM     20  F   UNL     1      49.918 -35.955  18.266  0.00  0.00    -0.189 F 
ATOM     21  F   UNL     1      47.898 -35.184  18.467  0.00  0.00    -0.189 F 
BRANCH  19  22
ATOM     22  C   UNL     1      49.193 -34.399  16.646  0.00  0.00    +0.460 C 
ATOM     23  F   UNL     1      48.498 -35.266  15.866  0.00  0.00    -0.165 F 
ATOM     24  F   UNL     1      50.452 -34.355  16.154  0.00  0.00    -0.165 F 
ATOM     25  F   UNL     1      48.642 -33.179  16.457  0.00  0.00    -0.165 F 
ENDBRANCH  19  22
ENDBRANCH  16  19
ENDBRANCH   1  16
TORSDOF 7
ENDMDL
MODEL 7
REMARK VINA RESULT:    -7.237      9.602     11.683
REMARK INTER + INTRA:          -9.801
REMARK INTER:                  -9.526
REMARK INTRA:                  -0.275
REMARK UNBOUND:                 0.397
REMARK  Name = PFOA_perfluorooctanoic_acid_CID1036_multiconf
REMARK  7 active torsions:
REMARK  status: ('A' for Active; 'I' for Inactive)
REMARK    1  A    between atoms: C_1  and  C_4
REMARK    2  A    between atoms: C_4  and  C_5
REMARK    3  A    between atoms: C_5  and  C_6
REMARK    4  A    between atoms: C_6  and  C_7
REMARK    5  A    between atoms: C_7  and  C_8
REMARK    6  A    between atoms: C_8  and  C_9
REMARK    7  A    between atoms: C_9  and  C_10
REMARK                            x       y       z     vdW  Elec       q    Type
REMARK                         _______ _______ _______ _____ _____    ______ ____
ROOT
ATOM      1  C   UNL     1      46.351 -44.702  18.557  0.00  0.00    +0.384 C 
ATOM      2  F   UNL     1      46.545 -44.243  19.835  0.00  0.00    -0.192 F 
ATOM      3  F   UNL     1      44.990 -44.688  18.390  0.00  0.00    -0.192 F 
ENDROOT
BRANCH   1   4
ATOM      4  C   UNL     1      46.821 -46.151  18.489  0.00  0.00    +0.384 C 
ATOM      5  F   UNL     1      45.777 -46.954  18.851  0.00  0.00    -0.192 F 
ATOM      6  F   UNL     1      47.090 -46.485  17.198  0.00  0.00    -0.192 F 
BRANCH   4   7
ATOM      7  C   UNL     1      48.018 -46.454  19.368  0.00  0.00    +0.389 C 
ATOM      8  F   UNL     1      47.588 -46.748  20.631  0.00  0.00    -0.192 F 
ATOM      9  F   UNL     1      48.777 -45.332  19.503  0.00  0.00    -0.192 F 
BRANCH   7  10
ATOM     10  C   UNL     1      48.862 -47.606  18.848  0.00  0.00    +0.414 C 
ATOM     11  F   UNL     1      48.115 -48.385  18.009  0.00  0.00    -0.186 F 
ATOM     12  F   UNL     1      49.184 -48.431  19.896  0.00  0.00    -0.186 F 
BRANCH  10  13
ATOM     13  C   UNL     1      50.114 -47.087  18.161  0.00  0.00    +0.430 C 
ATOM     14  O   UNL     1      50.184 -46.625  17.031  0.00  0.00    -0.239 OA
ATOM     15  O   UNL     1      51.229 -47.148  18.920  0.00  0.00    -0.239 OA
ENDBRANCH  10  13
ENDBRANCH   7  10
ENDBRANCH   4   7
ENDBRANCH   1   4
BRANCH   1  16
ATOM     16  C   UNL     1      46.961 -43.691  17.594  0.00  0.00    +0.387 C 
ATOM     17  F   UNL     1      46.287 -43.709  16.415  0.00  0.00    -0.192 F 
ATOM     18  F   UNL     1      48.223 -44.118  17.285  0.00  0.00    -0.192 F 
BRANCH  16  19
ATOM     19  C   UNL     1      47.032 -42.286  18.145  0.00  0.00    +0.409 C 
ATOM     20  F   UNL     1      45.809 -41.904  18.608  0.00  0.00    -0.189 F 
ATOM     21  F   UNL     1      47.865 -42.239  19.221  0.00  0.00    -0.189 F 
BRANCH  19  22
ATOM     22  C   UNL     1      47.501 -41.327  17.067  0.00  0.00    +0.460 C 
ATOM     23  F   UNL     1      48.007 -40.192  17.614  0.00  0.00    -0.165 F 
ATOM     24  F   UNL     1      46.492 -40.949  16.249  0.00  0.00    -0.165 F 
ATOM     25  F   UNL     1      48.475 -41.852  16.291  0.00  0.00    -0.165 F 
ENDBRANCH  19  22
ENDBRANCH  16  19
ENDBRANCH   1  16
TORSDOF 7
ENDMDL
MODEL 8
REMARK VINA RESULT:    -7.221      9.771     11.372
REMARK INTER + INTRA:          -9.778
REMARK INTER:                  -9.422
REMARK INTRA:                  -0.356
REMARK UNBOUND:                 0.397
REMARK  Name = PFOA_perfluorooctanoic_acid_CID1036_multiconf
REMARK  7 active torsions:
REMARK  status: ('A' for Active; 'I' for Inactive)
REMARK    1  A    between atoms: C_1  and  C_4
REMARK    2  A    between atoms: C_4  and  C_5
REMARK    3  A    between atoms: C_5  and  C_6
REMARK    4  A    between atoms: C_6  and  C_7
REMARK    5  A    between atoms: C_7  and  C_8
REMARK    6  A    between atoms: C_8  and  C_9
REMARK    7  A    between atoms: C_9  and  C_10
REMARK                            x       y       z     vdW  Elec       q    Type
REMARK                         _______ _______ _______ _____ _____    ______ ____
ROOT
ATOM      1  C   UNL     1      47.471 -45.445  19.263  0.00  0.00    +0.384 C 
ATOM      2  F   UNL     1      47.111 -46.055  20.436  0.00  0.00    -0.192 F 
ATOM      3  F   UNL     1      48.737 -44.970  19.497  0.00  0.00    -0.192 F 
ENDROOT
BRANCH   1   4
ATOM      4  C   UNL     1      46.552 -44.249  19.040  0.00  0.00    +0.384 C 
ATOM      5  F   UNL     1      45.503 -44.658  18.267  0.00  0.00    -0.192 F 
ATOM      6  F   UNL     1      45.993 -43.873  20.221  0.00  0.00    -0.192 F 
BRANCH   4   7
ATOM      7  C   UNL     1      47.229 -43.063  18.380  0.00  0.00    +0.389 C 
ATOM      8  F   UNL     1      48.184 -43.512  17.514  0.00  0.00    -0.192 F 
ATOM      9  F   UNL     1      47.909 -42.350  19.321  0.00  0.00    -0.192 F 
BRANCH   7  10
ATOM     10  C   UNL     1      46.259 -42.164  17.632  0.00  0.00    +0.414 C 
ATOM     11  F   UNL     1      45.059 -42.131  18.286  0.00  0.00    -0.186 F 
ATOM     12  F   UNL     1      45.977 -42.730  16.414  0.00  0.00    -0.186 F 
BRANCH  10  13
ATOM     13  C   UNL     1      46.840 -40.770  17.462  0.00  0.00    +0.430 C 
ATOM     14  O   UNL     1      46.442 -39.747  17.999  0.00  0.00    -0.239 OA
ATOM     15  O   UNL     1      47.911 -40.713  16.642  0.00  0.00    -0.239 OA
ENDBRANCH  10  13
ENDBRANCH   7  10
ENDBRANCH   4   7
ENDBRANCH   1   4
BRANCH   1  16
ATOM     16  C   UNL     1      47.554 -46.513  18.180  0.00  0.00    +0.387 C 
ATOM     17  F   UNL     1      47.292 -45.963  16.966  0.00  0.00    -0.192 F 
ATOM     18  F   UNL     1      46.535 -47.401  18.391  0.00  0.00    -0.192 F 
BRANCH  16  19
ATOM     19  C   UNL     1      48.867 -47.259  18.154  0.00  0.00    +0.409 C 
ATOM     20  F   UNL     1      49.877 -46.413  17.806  0.00  0.00    -0.189 F 
ATOM     21  F   UNL     1      49.181 -47.713  19.399  0.00  0.00    -0.189 F 
BRANCH  19  22
ATOM     22  C   UNL     1      48.793 -48.411  17.171  0.00  0.00    +0.460 C 
ATOM     23  F   UNL     1      50.035 -48.801  16.785  0.00  0.00    -0.165 F 
ATOM     24  F   UNL     1      48.123 -48.076  16.044  0.00  0.00    -0.165 F 
ATOM     25  F   UNL     1      48.187 -49.501  17.691  0.00  0.00    -0.165 F 
ENDBRANCH  19  22
ENDBRANCH  16  19
ENDBRANCH   1  16
TORSDOF 7
ENDMDL
MODEL 9
REMARK VINA RESULT:    -7.187      9.508     11.517
REMARK INTER + INTRA:          -9.730
REMARK INTER:                  -9.431
REMARK INTRA:                  -0.300
REMARK UNBOUND:                 0.397
REMARK  Name = PFOA_perfluorooctanoic_acid_CID1036_multiconf
REMARK  7 active torsions:
REMARK  status: ('A' for Active; 'I' for Inactive)
REMARK    1  A    between atoms: C_1  and  C_4
REMARK    2  A    between atoms: C_4  and  C_5
REMARK    3  A    between atoms: C_5  and  C_6
REMARK    4  A    between atoms: C_6  and  C_7
REMARK    5  A    between atoms: C_7  and  C_8
REMARK    6  A    between atoms: C_8  and  C_9
REMARK    7  A    between atoms: C_9  and  C_10
REMARK                            x       y       z     vdW  Elec       q    Type
REMARK                         _______ _______ _______ _____ _____    ______ ____
ROOT
ATOM      1  C   UNL     1      46.548 -44.192  19.075  0.00  0.00    +0.384 C 
ATOM      2  F   UNL     1      46.117 -43.689  20.275  0.00  0.00    -0.192 F 
ATOM      3  F   UNL     1      45.396 -44.508  18.401  0.00  0.00    -0.192 F 
ENDROOT
BRANCH   1   4
ATOM      4  C   UNL     1      47.311 -45.485  19.339  0.00  0.00    +0.384 C 
ATOM      5  F   UNL     1      48.633 -45.174  19.492  0.00  0.00    -0.192 F 
ATOM      6  F   UNL     1      46.931 -46.005  20.537  0.00  0.00    -0.192 F 
BRANCH   4   7
ATOM      7  C   UNL     1      47.162 -46.525  18.246  0.00  0.00    +0.389 C 
ATOM      8  F   UNL     1      46.878 -45.902  17.065  0.00  0.00    -0.192 F 
ATOM      9  F   UNL     1      46.077 -47.305  18.508  0.00  0.00    -0.192 F 
BRANCH   7  10
ATOM     10  C   UNL     1      48.404 -47.384  18.070  0.00  0.00    +0.414 C 
ATOM     11  F   UNL     1      48.734 -47.971  19.260  0.00  0.00    -0.186 F 
ATOM     12  F   UNL     1      49.469 -46.573  17.773  0.00  0.00    -0.186 F 
BRANCH  10  13
ATOM     13  C   UNL     1      48.189 -48.420  16.978  0.00  0.00    +0.430 C 
ATOM     14  O   UNL     1      47.636 -49.503  17.103  0.00  0.00    -0.239 OA
ATOM     15  O   UNL     1      48.658 -48.053  15.766  0.00  0.00    -0.239 OA
ENDBRANCH  10  13
ENDBRANCH   7  10
ENDBRANCH   4   7
ENDBRANCH   1   4
BRANCH   1  16
ATOM     16  C   UNL     1      47.251 -43.072  18.318  0.00  0.00    +0.387 C 
ATOM     17  F   UNL     1      48.215 -43.590  17.514  0.00  0.00    -0.192 F 
ATOM     18  F   UNL     1      47.927 -42.311  19.232  0.00  0.00    -0.192 F 
BRANCH  16  19
ATOM     19  C   UNL     1      46.318 -42.186  17.527  0.00  0.00    +0.409 C 
ATOM     20  F   UNL     1      45.861 -42.852  16.430  0.00  0.00    -0.189 F 
ATOM     21  F   UNL     1      45.211 -41.885  18.262  0.00  0.00    -0.189 F 
BRANCH  19  22
ATOM     22  C   UNL     1      47.036 -40.919  17.103  0.00  0.00    +0.460 C 
ATOM     23  F   UNL     1      48.318 -41.185  16.744  0.00  0.00    -0.165 F 
ATOM     24  F   UNL     1      47.093 -40.007  18.101  0.00  0.00    -0.165 F 
ATOM     25  F   UNL     1      46.451 -40.320  16.042  0.00  0.00    -0.165 F 
ENDBRANCH  19  22
ENDBRANCH  16  19
ENDBRANCH   1  16
TORSDOF 7
ENDMDL
MODEL 10
REMARK VINA RESULT:    -7.118      9.986     11.586
REMARK INTER + INTRA:          -9.634
REMARK INTER:                  -9.552
REMARK INTRA:                  -0.082
REMARK UNBOUND:                 0.397
REMARK  Name = PFOA_perfluorooctanoic_acid_CID1036_multiconf
REMARK  7 active torsions:
REMARK  status: ('A' for Active; 'I' for Inactive)
REMARK    1  A    between atoms: C_1  and  C_4
REMARK    2  A    between atoms: C_4  and  C_5
REMARK    3  A    between atoms: C_5  and  C_6
REMARK    4  A    between atoms: C_6  and  C_7
REMARK    5  A    between atoms: C_7  and  C_8
REMARK    6  A    between atoms: C_8  and  C_9
REMARK    7  A    between atoms: C_9  and  C_10
REMARK                            x       y       z     vdW  Elec       q    Type
REMARK                         _______ _______ _______ _____ _____    ______ ____
ROOT
ATOM      1  C   UNL     1      47.205 -46.249  18.891  0.00  0.00    +0.384 C 
ATOM      2  F   UNL     1      46.283 -46.957  19.618  0.00  0.00    -0.192 F 
ATOM      3  F   UNL     1      47.988 -45.634  19.834  0.00  0.00    -0.192 F 
ENDROOT
BRANCH   1   4
ATOM      4  C   UNL     1      46.471 -45.166  18.108  0.00  0.00    +0.384 C 
ATOM      5  F   UNL     1      46.315 -45.603  16.823  0.00  0.00    -0.192 F 
ATOM      6  F   UNL     1      45.206 -45.029  18.588  0.00  0.00    -0.192 F 
BRANCH   4   7
ATOM      7  C   UNL     1      47.176 -43.824  18.100  0.00  0.00    +0.389 C 
ATOM      8  F   UNL     1      48.426 -43.973  17.572  0.00  0.00    -0.192 F 
ATOM      9  F   UNL     1      47.378 -43.412  19.383  0.00  0.00    -0.192 F 
BRANCH   7  10
ATOM     10  C   UNL     1      46.425 -42.762  17.314  0.00  0.00    +0.414 C 
ATOM     11  F   UNL     1      45.410 -42.253  18.075  0.00  0.00    -0.186 F 
ATOM     12  F   UNL     1      45.799 -43.356  16.248  0.00  0.00    -0.186 F 
BRANCH  10  13
ATOM     13  C   UNL     1      47.374 -41.670  16.846  0.00  0.00    +0.430 C 
ATOM     14  O   UNL     1      47.839 -41.544  15.722  0.00  0.00    -0.239 OA
ATOM     15  O   UNL     1      47.688 -40.764  17.797  0.00  0.00    -0.239 OA
ENDBRANCH  10  13
ENDBRANCH   7  10
ENDBRANCH   4   7
ENDBRANCH   1   4
BRANCH   1  16
ATOM     16  C   UNL     1      48.069 -47.243  18.126  0.00  0.00    +0.387 C 
ATOM     17  F   UNL     1      48.687 -46.619  17.090  0.00  0.00    -0.192 F 
ATOM     18  F   UNL     1      47.235 -48.156  17.539  0.00  0.00    -0.192 F 
BRANCH  16  19
ATOM     19  C   UNL     1      49.074 -47.970  18.987  0.00  0.00    +0.409 C 
ATOM     20  F   UNL     1      48.714 -47.885  20.298  0.00  0.00    -0.189 F 
ATOM     21  F   UNL     1      49.080 -49.300  18.693  0.00  0.00    -0.189 F 
BRANCH  19  22
ATOM     22  C   UNL     1      50.456 -47.376  18.789  0.00  0.00    +0.460 C 
ATOM     23  F   UNL     1      51.265 -47.668  19.840  0.00  0.00    -0.165 F 
ATOM     24  F   UNL     1      50.421 -46.027  18.689  0.00  0.00    -0.165 F 
ATOM     25  F   UNL     1      51.072 -47.847  17.682  0.00  0.00    -0.165 F 
ENDBRANCH  19  22
ENDBRANCH  16  19
ENDBRANCH   1  16
TORSDOF 7
ENDMDL
